LAMMPS data file via write_data, version 3 Mar 2020, timestep = 1000000

12534 atoms
15 atom types
8356 bonds
10 bond types
4178 angles
12 angle types
0 dihedrals
15 dihedral types
0 impropers
2 improper types

0.0000000000000000e+00 5.0000000000000000e+01 xlo xhi
0.0000000000000000e+00 5.0000000000000000e+01 ylo yhi
0.0000000000000000e+00 5.0000000000000000e+01 zlo zhi

Masses

1 15.9994
2 1.008
3 12.011
4 12.011
5 12.011
6 12.011
7 12.011
8 1.008
9 12.011
10 12.011
11 12.011
12 1.008
13 12.011
14 1.008
15 12.011

Pair Coeffs # lj/cut/coul/long

1 0.1554 3.16557
2 0 0
3 0.066 3.5
4 0.066 3.5
5 0.066 3.5
6 0.066 3.5
7 0.066 3.5
8 0.03 2.5
9 0.076 3.55
10 0.076 3.55
11 0.076 3.55
12 0.03 2.42
13 0.07 3.55
14 0.03 2.42
15 0.07 3.55

Bond Coeffs # harmonic

1 554.135 1
2 268 1.529
3 340 1.09
4 317 1.51
5 340 1.08
6 549 1.34
7 469 1.4
8 367 1.08
9 317 1.51
10 427 1.433

Angle Coeffs # harmonic

1 45.7696 109.47
2 58.35 112.7
3 33 107.8
4 37.5 110.7
5 35 109.5
6 63 112.4
7 70 124
8 35 109.5
9 63 114
10 85 119.7
11 63 120
12 35 120

Dihedral Coeffs # opls

1 1.3 -0.05 0.2 0
2 0 0 0.3 0
3 0 0 0.3 0
4 0 0 0.366 0
5 0 0 0.462 0
6 0.205 -0.531 0 0
7 0 0 -0.372 0
8 0 14 0 0
9 0 14 0 0
10 0.205 -0.531 0 0
11 0 0 -0.372 0
12 1.241 3.353 -0.286 0
13 0 7.25 0 0
14 0 7.25 0 0
15 0 7.25 0 0

Improper Coeffs # harmonic

1 15 0
2 1 0

Atoms # full

6046 2016 1 -8.1999999999999995e-01 4.5178087841966708e+00 1.9668950548683979e+00 6.9985081646239991e+00 0 -1 0
10919 3640 2 4.0999999999999998e-01 4.4260623396688885e+00 7.9868961327765220e+00 2.1441324025024056e+00 1 1 0
10918 3640 1 -8.1999999999999995e-01 4.8155535326435368e+00 7.2345390939262026e+00 1.5855719125939414e+00 1 1 0
12221 4074 2 4.0999999999999998e-01 6.1398665200876792e+00 2.8805816871759338e+00 4.6448537101814233e+00 0 0 1
1819 607 1 -8.1999999999999995e-01 6.9690013979688565e+00 6.0075768018625668e+00 2.8007014342240351e+00 0 -1 0
1821 607 2 4.0999999999999998e-01 7.7890379717220766e+00 6.4418636603610695e+00 3.1642302210673963e+00 0 -1 0
12220 4074 1 -8.1999999999999995e-01 6.4880318285009979e+00 3.4390156614363159e+00 5.4469521007911332e+00 0 0 1
2649 883 2 4.0999999999999998e-01 2.1540986659550603e+00 9.1190549969313608e+00 4.7550768192921078e+00 1 -1 1
7887 2629 2 4.0999999999999998e-01 1.0761253308741182e+01 2.3730871436061552e+01 1.2549687028288643e+00 0 -1 0
5457 1819 2 4.0999999999999998e-01 5.7023947354446305e+00 7.0168938016834304e+00 5.9253866499098997e+00 0 1 0
5455 1819 1 -8.1999999999999995e-01 5.4469896055616385e+00 7.4465402700179819e+00 5.0442212005710827e+00 0 1 0
5456 1819 2 4.0999999999999998e-01 6.3009986491120173e+00 7.4204498078136236e+00 4.5175553393918175e+00 0 1 0
9172 3058 1 -8.1999999999999995e-01 5.9136827282985873e+00 2.1907191483702726e+00 3.2137070676632051e+00 0 0 1
1820 607 2 4.0999999999999998e-01 7.0802607916335587e+00 5.0496927007576087e+00 3.0780190395252283e+00 0 -1 0
9173 3058 2 4.0999999999999998e-01 6.8362474097245673e+00 2.4364929487328695e+00 2.8900694951183530e+00 0 0 1
10218 3406 2 4.0999999999999998e-01 2.3545082585109483e+01 2.4216589913732857e+01 4.4476573132647061e+00 0 1 -1
10216 3406 1 -8.1999999999999995e-01 2.4410555562955818e+01 2.4687331085224500e+01 4.5978148219932935e+00 0 1 -1
6048 2016 2 4.0999999999999998e-01 4.8633736141761474e+00 1.1258120265784262e+00 6.4931697467428959e+00 0 -1 0
11320 3774 1 -8.1999999999999995e-01 1.6557923359398936e+00 3.9338582600308629e+00 9.1847347100552290e-01 1 0 1
3436 1146 1 -8.1999999999999995e-01 8.2555719958806257e+00 7.8720945120388244e+00 4.1078345761226682e+00 0 -1 1
9184 3062 1 -8.1999999999999995e-01 3.4358204433561181e+00 5.0809220468354859e+00 6.1819575238535132e+00 1 0 1
11321 3774 2 4.0999999999999998e-01 1.9557547108113669e+00 3.4306447448667994e+00 1.7479214472798867e+00 1 0 1
9174 3058 2 4.0999999999999998e-01 5.5610192977125559e+00 1.6920151826317440e+00 2.3777568140189689e+00 0 0 1
4605 1535 2 4.0999999999999998e-01 1.1813403393373967e+01 8.3592829282267562e+00 8.3916123497204365e-01 -1 0 0
3426 1142 2 4.0999999999999998e-01 2.3271763135630273e+01 1.4490689304242480e+01 6.5000976532415677e+00 0 1 1
1130 377 2 4.0999999999999998e-01 5.9651071383942300e+00 9.7376637811465927e-01 4.6007684199834769e+00 0 0 0
6047 2016 2 4.0999999999999998e-01 5.0024582514459341e+00 2.5926990595994628e+00 6.4479484915204504e+00 0 -1 0
8767 2923 1 -8.1999999999999995e-01 2.9862586516706293e+00 2.4939160902923176e+00 2.8533043794223580e+00 0 1 0
5802 1934 2 4.0999999999999998e-01 1.9707854836239795e+00 4.7016583966391936e+00 5.6662448005537014e+00 0 -1 1
9206 3069 2 4.0999999999999998e-01 5.9141965970839427e-01 5.5779833375889110e-01 5.5052003319823433e+00 0 0 0
11322 3774 2 4.0999999999999998e-01 2.4029175503387439e+00 4.0257008148961759e+00 2.4271705227336859e-01 1 0 1
6223 2075 1 -8.1999999999999995e-01 4.9004513229400781e-01 2.2111375828512996e+00 4.0559502153378242e+00 1 1 0
6225 2075 2 4.0999999999999998e-01 1.4668419880430845e+00 2.1164180525085929e+00 3.7719343456281567e+00 1 1 0
9185 3062 2 4.0999999999999998e-01 4.0110364057879027e+00 5.6942038161318678e+00 5.6205676934914077e+00 1 0 1
1129 377 1 -8.1999999999999995e-01 5.8488111594031666e+00 3.8093943265957586e-01 5.4691827824933403e+00 0 0 0
8769 2923 2 4.0999999999999998e-01 3.9006453798871861e+00 2.8875542427006735e+00 3.0713985859808863e+00 0 1 0
3437 1146 2 4.0999999999999998e-01 9.0694450348747129e+00 7.8457713112586891e+00 4.7347326356942503e+00 0 -1 1
5800 1934 1 -8.1999999999999995e-01 9.7382853972210448e-01 4.7242038225473877e+00 5.3445077610213660e+00 0 -1 1
3438 1146 2 4.0999999999999998e-01 7.9229231875486255e+00 8.8559020699831823e+00 4.2037341564001620e+00 0 -1 1
7197 2399 2 4.0999999999999998e-01 6.4282163269366031e+00 9.3998647798165447e+00 1.4347419881187404e+00 0 0 1
8147 2716 2 4.0999999999999998e-01 2.4903509921487938e+01 9.9205826893422322e-01 6.0243746107524689e+00 0 1 1
3447 1149 2 4.0999999999999998e-01 1.5336164129296449e+01 2.0650662495890248e+00 9.3205372247077523e-01 1 0 1
5801 1934 2 4.0999999999999998e-01 4.2090427058397617e-01 4.4959849519861024e+00 6.1626915676791771e+00 0 -1 1
4008 1336 2 4.0999999999999998e-01 6.5058126833085135e+00 4.8641816122349431e+00 6.3888466719213550e+00 0 0 0
3425 1142 2 4.0999999999999998e-01 2.3942505872659801e+01 1.5805333716590670e+01 6.8569801482827923e+00 0 1 1
8768 2923 2 4.0999999999999998e-01 3.1483565460996257e+00 1.5212141829851089e+00 2.9860246215312807e+00 0 1 0
7986 2662 2 4.0999999999999998e-01 1.2388062061764458e+01 2.4200476603198705e+01 4.9781749595146394e+00 0 0 1
6097 2033 1 -8.1999999999999995e-01 5.9147340968509106e+00 2.1425319387208059e+01 1.4217590252882148e-01 0 0 0
11831 3944 2 4.0999999999999998e-01 7.3852322731931332e+00 1.7288622127197552e+01 2.6231824161266631e-01 0 0 0
12222 4074 2 4.0999999999999998e-01 7.3553400292975128e+00 3.1354898859929294e+00 5.7616849900621760e+00 0 0 1
434 145 2 4.0999999999999998e-01 1.2146323875223581e+01 6.0244798745194048e+00 3.6716918173181456e-01 0 1 1
7984 2662 1 -8.1999999999999995e-01 1.3298343926953887e+01 2.4188355266796272e+01 5.4271272378149673e+00 0 0 1
6084 2028 2 4.0999999999999998e-01 1.0156425765908807e+01 2.4980880821097383e+01 4.4543239146886693e+00 0 1 0
2841 947 2 4.0999999999999998e-01 1.0059065336969431e+01 3.3790434388214350e+00 5.7781280780421165e+00 1 0 0
2839 947 1 -8.1999999999999995e-01 9.3236719575659475e+00 2.6450894603319588e+00 5.7570640050186590e+00 1 0 0
7095 2365 2 4.0999999999999998e-01 1.5180084786972371e+01 2.8977402996219785e+00 4.7263753393896133e+00 0 1 0
7252 2418 1 -8.1999999999999995e-01 1.0618697524033701e+01 5.6793180850168588e+00 2.2629012426641442e+00 0 0 1
7253 2418 2 4.0999999999999998e-01 1.0082069744457744e+01 5.6173569673010615e+00 1.3923339283899727e+00 0 0 1
7696 2566 1 -8.1999999999999995e-01 1.1207184672332069e+01 3.2114520615971021e+00 3.3379450897834126e+00 0 0 1
7697 2566 2 4.0999999999999998e-01 1.1126056218457663e+01 3.2933657356951298e+00 4.3344081538509416e+00 0 0 1
7698 2566 2 4.0999999999999998e-01 1.0929240860618673e+01 4.0795502330932285e+00 2.8869802862115161e+00 0 0 1
7254 2418 2 4.0999999999999998e-01 1.0368207580330745e+01 6.6013731705535310e+00 2.5945365393666719e+00 0 0 1
1562 521 2 4.0999999999999998e-01 1.1021091759156720e+01 7.0218040156279997e+00 5.2880349070738122e+00 0 0 1
1561 521 1 -8.1999999999999995e-01 1.0321618971811489e+01 7.4549278925519973e+00 5.8852982360018355e+00 0 0 1
2840 947 2 4.0999999999999998e-01 9.7094296267324456e+00 1.8437878335645830e+00 5.2577885728442508e+00 1 0 0
10475 3492 2 4.0999999999999998e-01 5.9825083289695280e-01 1.8997723567364034e+01 2.0469973125066216e+00 1 0 0
10096 3366 1 -8.1999999999999995e-01 1.3247487708295546e+01 1.0723923441171950e+00 2.7689167289467274e+00 0 0 0
7094 2365 2 4.0999999999999998e-01 1.4563740227902057e+01 2.2610273675519346e+00 3.3198733635883624e+00 0 1 0
7093 2365 1 -8.1999999999999995e-01 1.5167848864054019e+01 2.9922980267604311e+00 3.6846404489744580e+00 0 1 0
1569 523 2 4.0999999999999998e-01 1.3672666070232685e+01 5.4268166711217010e+00 1.8109827574765069e+00 0 0 0
1568 523 2 4.0999999999999998e-01 1.4378442187870258e+01 4.5568305007837289e+00 3.0759206542672741e+00 0 0 0
7885 2629 1 -8.1999999999999995e-01 1.1093782556361417e+01 2.4539332667097213e+01 1.7773946974908061e+00 0 -1 0
7567 2523 1 -8.1999999999999995e-01 1.2751180518261307e+01 6.7270174450943800e+00 4.6749598457622730e+00 0 0 0
7568 2523 2 4.0999999999999998e-01 1.3226768349812309e+01 6.3008814353593268e+00 3.8419869851635298e+00 0 0 0
5640 1880 2 4.0999999999999998e-01 2.4600840598902277e+01 1.3597991784616415e+01 3.1762507993587898e+00 0 0 0
1567 523 1 -8.1999999999999995e-01 1.4096423206424701e+01 5.4783421333305515e+00 2.7542741359753409e+00 0 0 0
2697 899 2 4.0999999999999998e-01 6.2872702871683046e+00 2.4419920826016817e+01 5.8169520466547642e+00 1 0 0
11645 3882 2 4.0999999999999998e-01 1.3293561692505687e+00 5.4190200827894310e+00 2.0023940417058967e+00 1 0 1
7569 2523 2 4.0999999999999998e-01 1.3391614163031420e+01 6.6068865628893061e+00 5.4671736514386673e+00 0 0 0
6109 2037 1 -8.1999999999999995e-01 1.6124390513086688e+01 7.3578193346853444e+00 2.7167956051620936e+00 -1 0 0
6110 2037 2 4.0999999999999998e-01 1.5304734402325931e+01 6.8246322571725182e+00 2.7656044867670277e+00 -1 0 0
10293 3431 2 4.0999999999999998e-01 9.9446862668495726e+00 2.2786750082286406e-01 3.6452485305138684e+00 -1 0 0
2964 988 2 4.0999999999999998e-01 1.8401564034444725e+01 2.4211700635413379e+01 8.9093413213176342e-01 0 0 1
3446 1149 2 4.0999999999999998e-01 1.4340921365531603e+01 1.0209571792953243e+00 1.4887633764811150e+00 1 0 1
10098 3366 2 4.0999999999999998e-01 1.2375884205961158e+01 1.4637814310878674e+00 2.9160008308348577e+00 0 0 0
2573 858 2 4.0999999999999998e-01 1.5996934420890221e-01 3.4769671064508239e+00 2.4335443489917427e-01 0 0 2
11644 3882 1 -8.1999999999999995e-01 1.2328664586942171e+00 6.2007462590327691e+00 2.5979022780645447e+00 1 0 1
7933 2645 1 -8.1999999999999995e-01 1.5573946930550674e+01 1.6165103862732282e+00 6.2090534059802804e+00 0 0 1
12498 4166 2 4.0999999999999998e-01 1.3503660428674605e+01 1.8185382215034242e+01 3.1957816835300817e-01 1 0 0
10094 3365 2 4.0999999999999998e-01 1.6194097934867454e+01 9.1949563037126900e+00 7.5298658775049443e-01 0 0 1
8146 2716 1 -8.1999999999999995e-01 2.4436413081730585e+01 1.6659486641872745e+00 6.6042039682016611e+00 0 1 1
2579 860 2 4.0999999999999998e-01 1.5893036608794343e+01 2.0256561028736506e+01 6.5784441938451002e+00 0 1 1
6426 2142 2 4.0999999999999998e-01 1.4173766350942332e+01 2.3816631749123626e+01 4.1234147324675554e+00 1 1 0
6111 2037 2 4.0999999999999998e-01 1.6333860979328119e+01 7.3770235759329017e+00 1.7169487664075060e+00 -1 0 0
3465 1155 2 4.0999999999999998e-01 1.1386018445373292e+01 5.1319034582684546e+00 6.7175678212149625e+00 1 2 0
3463 1155 1 -8.1999999999999995e-01 1.1265531358005145e+01 4.1684397629166892e+00 6.4288482902574060e+00 1 2 0
10095 3365 2 4.0999999999999998e-01 1.5939012284788161e+01 1.0708183956112975e+01 9.8206088079589648e-01 0 0 1
3464 1155 2 4.0999999999999998e-01 1.2207290895524892e+01 3.7138237527069196e+00 6.5841990772322738e+00 1 2 0
2580 860 2 4.0999999999999998e-01 1.6995615431381569e+01 2.1433458050712268e+01 6.0556197352832921e+00 0 1 1
149 50 2 4.0999999999999998e-01 4.9895247183892071e+00 2.3823372791294169e+01 3.6186975321656409e+00 1 0 0
712 238 1 -8.1999999999999995e-01 1.4271977824565047e+01 8.3346837462995200e+00 6.8906187654442821e+00 0 0 0
816 272 2 4.0999999999999998e-01 1.2963112558919452e+00 1.3822084003381512e+01 6.6763255815084497e+00 1 0 1
10492 3498 1 -8.1999999999999995e-01 1.6150032877694596e+01 3.5059070839235105e+00 5.9803891393965958e-01 0 1 0
2952 984 2 4.0999999999999998e-01 4.4144617781510798e+00 7.0242176231507267e+00 7.8649157596659858e-02 1 0 0
12496 4166 1 -8.1999999999999995e-01 1.3778183463158053e+01 1.7298984348079333e+01 3.7457610796716903e-02 1 0 0
4223 1408 2 4.0999999999999998e-01 2.1115682305535614e+01 1.9431781936036069e-01 2.1451125469772720e+00 0 0 1
11646 3882 2 4.0999999999999998e-01 1.0512133372215335e+00 5.8800655843064238e+00 3.5276835062741441e+00 1 0 1
10292 3431 2 4.0999999999999998e-01 1.1219319149456545e+01 3.1805827571568107e-01 4.4238091042170504e+00 -1 0 0
5160 1720 2 4.0999999999999998e-01 5.9998188310764189e-01 7.9772201325579477e+00 2.1884043280869823e+00 0 0 1
3614 1205 2 4.0999999999999998e-01 2.1333834155098714e+01 6.1804168581456160e+00 4.2240606874627701e-01 0 0 0
6293 2098 2 4.0999999999999998e-01 2.3591741385750630e+01 5.2614456140819579e+00 3.3348992926164569e+00 0 0 1
6294 2098 2 4.0999999999999998e-01 2.3174573286047448e+01 5.8805182806445977e+00 2.0123411784147587e+00 0 0 1
4224 1408 2 4.0999999999999998e-01 2.0868419145093654e+01 1.3065241426665348e+00 3.2218257307265112e+00 0 0 1
3001 1001 1 -8.1999999999999995e-01 1.9060642820013992e+01 2.1972676567372744e+00 1.8391571992548057e+00 0 1 1
1215 405 2 4.0999999999999998e-01 2.3967516867522939e+01 2.8135536625322830e+00 3.4425098190859029e+00 -1 0 0
3002 1001 2 4.0999999999999998e-01 1.8350314497080980e+01 2.9119787496729725e+00 1.8785474137845406e+00 0 1 1
3185 1062 2 4.0999999999999998e-01 1.8396737258003505e+01 3.2786844726345814e+00 4.0067425831727785e+00 -1 1 1
3184 1062 1 -8.1999999999999995e-01 1.7941223022540015e+01 4.0800298524796910e+00 3.6501804977429102e+00 -1 1 1
3186 1062 2 4.0999999999999998e-01 1.6936362912033175e+01 3.8144849872718423e+00 3.5178253662515240e+00 -1 1 1
10105 3369 1 -8.1999999999999995e-01 1.9490208619318537e+01 6.1829852390091522e-01 5.9166337768765755e+00 0 1 1
9516 3172 2 4.0999999999999998e-01 2.1130924353209871e+01 1.7145996799297760e+00 6.0224147349063273e+00 1 0 0
1213 405 1 -8.1999999999999995e-01 2.4146224151635476e+01 2.0342927355447498e+00 2.9015083743724936e+00 -1 0 0
1214 405 2 4.0999999999999998e-01 2.3332463529695485e+01 1.4964364230938421e+00 2.7350595189737255e+00 -1 0 0
4920 1640 2 4.0999999999999998e-01 1.0218135827107979e+01 1.9370158211873004e+01 5.3957937406703305e-01 0 0 0
4500 1500 2 4.0999999999999998e-01 4.1415091547002914e-01 2.3130292622393636e+01 3.4966737329480737e+00 0 -1 2
3118 1040 1 -8.1999999999999995e-01 2.3670403938263544e+01 4.1037669363412528e+00 4.7236257126502794e+00 0 1 1
9635 3212 2 4.0999999999999998e-01 1.8268432305939267e+01 5.7569345568845218e+00 3.6175888863642456e+00 -1 0 1
9514 3172 1 -8.1999999999999995e-01 2.1873325682509851e+01 2.3863413384282959e+00 6.3134739695164637e+00 1 0 0
3039 1013 2 4.0999999999999998e-01 1.8882189562312337e+01 6.7714966659484306e+00 5.4899240857889504e+00 0 0 0
2328 776 2 4.0999999999999998e-01 9.8870449061685814e+00 6.0771746496754986e-03 1.3112554841171120e+00 0 1 1
10097 3366 2 4.0999999999999998e-01 1.3226384870652950e+01 2.5334555296758032e-01 3.3943958971049901e+00 0 0 0
6292 2098 1 -8.1999999999999995e-01 2.3723469266412973e+01 6.0650413780193961e+00 2.7707435325526415e+00 0 0 1
3290 1097 2 4.0999999999999998e-01 2.1623029625977740e+01 2.0507261519984674e+01 3.1479013995387541e+00 0 0 2
11284 3762 1 -8.1999999999999995e-01 1.9904215994940106e+01 6.2501060581830243e+00 7.7723146792013487e-01 0 0 0
7139 2380 2 4.0999999999999998e-01 2.1560741567872704e+01 6.6363489835303167e+00 3.0304441169950711e+00 0 0 1
11286 3762 2 4.0999999999999998e-01 1.9370655192148497e+01 5.6221075972570684e+00 2.5005694814508117e-01 0 0 0
3119 1040 2 4.0999999999999998e-01 2.2928358918359400e+01 3.6996822947594743e+00 5.3329432414069879e+00 0 1 1
3120 1040 2 4.0999999999999998e-01 2.4316460326860273e+01 4.2947244230437498e+00 5.5045455746291134e+00 0 1 1
11285 3762 2 4.0999999999999998e-01 1.9395741932112319e+01 6.3612165413097372e+00 1.6693839468895213e+00 0 0 0
8913 2971 2 4.0999999999999998e-01 2.3756199540031016e+01 3.0774837775979771e+00 4.4500800802758500e-01 -1 0 1
6287 2096 2 4.0999999999999998e-01 2.4103606842177520e+01 9.6112150025603214e+00 1.6098457874615089e+00 0 1 1
7140 2380 2 4.0999999999999998e-01 2.0195084943956161e+01 7.2971274445296812e+00 3.4680513840708249e+00 0 0 1
9634 3212 1 -8.1999999999999995e-01 1.8664948689528416e+01 6.7011658403902068e+00 3.5461332366856224e+00 -1 0 1
9636 3212 2 4.0999999999999998e-01 1.7817574916503052e+01 7.2118133306541630e+00 3.2472221811011752e+00 -1 0 1
10946 3649 2 4.0999999999999998e-01 2.4064527623410818e+01 7.5855526406364984e+00 3.6938313950960193e+00 0 0 1
10106 3369 2 4.0999999999999998e-01 1.8976249858151359e+01 6.4812015531136580e-01 6.8291526247016483e+00 0 1 1
8888 2963 2 4.0999999999999998e-01 2.6722635210163519e+00 7.2841761422852151e+00 6.1890034343962022e+00 0 0 0
5617 1873 1 -8.1999999999999995e-01 8.1466906951528077e+00 2.9211990821009111e+00 2.4198817500524910e+00 0 1 1
3613 1205 1 -8.1999999999999995e-01 2.2370077063461689e+01 5.9844114496307865e+00 3.8607968787078728e-01 0 0 0
6224 2075 2 4.0999999999999998e-01 3.1396440171605922e-01 3.1271191028310028e+00 4.4861747636981235e+00 1 1 0
10945 3649 1 -8.1999999999999995e-01 2.4374278595904887e+01 8.1380688768705056e+00 4.4791324400745953e+00 0 0 1
5652 1884 2 4.0999999999999998e-01 1.9552068575773934e+01 1.8190694432472682e+01 1.5695889643039473e+00 0 0 0
4577 1526 2 4.0999999999999998e-01 1.8816120395467815e+00 9.3619674575385083e+00 5.0099187007957471e-02 0 0 0
6069 2023 2 4.0999999999999998e-01 8.1968643427966867e+00 1.6153016074816001e+01 7.0044147386823141e+00 1 0 1
10196 3399 2 4.0999999999999998e-01 2.2247054938193617e+01 2.2126240303408370e+01 1.2652303849760671e+00 0 -1 1
8248 2750 1 -8.1999999999999995e-01 1.3233306156772809e+01 2.2205606832828781e+01 6.9858350360722419e+00 -1 -1 0
5651 1884 2 4.0999999999999998e-01 2.0620674283896246e+01 1.8450320474006634e+01 2.6131984474622603e+00 0 0 0
2647 883 1 -8.1999999999999995e-01 2.1303090400295099e+00 9.6865406120479172e+00 3.8575822052828621e+00 1 -1 1
8022 2674 2 4.0999999999999998e-01 1.0486509767405829e+00 1.2845226791129980e+01 3.1719415180133379e+00 1 1 0
8889 2963 2 4.0999999999999998e-01 4.0274773951033103e+00 8.0656359407294289e+00 5.8602092507932380e+00 0 0 0
10920 3640 2 4.0999999999999998e-01 5.5095988124167166e+00 6.6977210459159888e+00 2.1704837412309579e+00 1 1 0
8020 2674 1 -8.1999999999999995e-01 5.5197430157631933e-01 1.2808045180776045e+01 4.0402386459524298e+00 1 1 0
5487 1829 2 4.0999999999999998e-01 1.8931999093997074e+01 3.9722586117201081e-01 2.8876574677087690e+00 0 0 0
2648 883 2 4.0999999999999998e-01 3.0721529389972084e+00 9.6410942720163479e+00 3.6099064777609411e+00 1 -1 1
8887 2963 1 -8.1999999999999995e-01 3.0377133349469427e+00 8.1591985413871893e+00 6.0286777397583258e+00 0 0 0
11046 3682 2 4.0999999999999998e-01 9.4450805553385919e-02 2.4352531918793051e+01 5.1431364081663722e-01 1 0 0
433 145 1 -8.1999999999999995e-01 1.3044783094477616e+01 5.5558243868526684e+00 2.1828902021064697e-01 0 1 1
8251 2751 1 -8.1999999999999995e-01 1.8345673580224897e+01 1.2143924888472514e+01 2.7211301360965334e-01 -1 1 1
5159 1720 2 4.0999999999999998e-01 7.9138598822634121e-01 9.4978074479747541e+00 2.6830970535253189e+00 0 0 1
11480 3827 2 4.0999999999999998e-01 5.8579806004556056e+00 9.8798636496232923e+00 3.4084886191672581e+00 0 0 1
11479 3827 1 -8.1999999999999995e-01 5.0914488669783173e+00 9.7672474623484291e+00 2.7857455409532861e+00 0 0 1
11308 3770 1 -8.1999999999999995e-01 1.6379568988890381e+00 1.6571570775687295e+01 4.9594459262257766e+00 1 0 2
9125 3042 2 4.0999999999999998e-01 1.5335416440735425e+00 1.2794389879095107e+01 7.4117682972688836e-01 0 0 1
8609 2870 2 4.0999999999999998e-01 3.5812223332658109e+00 1.2772895074650577e+01 1.9328518755231288e+00 0 1 2
9811 3271 1 -8.1999999999999995e-01 4.1559797040962154e+00 1.3704967741924786e+01 5.1761346597962197e+00 -1 0 0
11481 3827 2 4.0999999999999998e-01 4.8805312430018146e+00 1.0702610856473559e+01 2.4031490144504271e+00 0 0 1
3190 1064 1 -8.1999999999999995e-01 6.0379490533532909e+00 1.5020287351152653e+01 1.6558081996621503e+00 0 0 1
3191 1064 2 4.0999999999999998e-01 6.0183849329035750e+00 1.5939274194429411e+01 2.1118423272366815e+00 0 0 1
3192 1064 2 4.0999999999999998e-01 6.8919346785085516e+00 1.4559483804995683e+01 1.9463713204898105e+00 0 0 1
4192 1398 1 -8.1999999999999995e-01 7.3028866694957015e+00 1.0426656606862336e+01 4.6342734603021709e+00 -1 2 0
4194 1398 2 4.0999999999999998e-01 7.1729376073731101e+00 1.0256417452854123e+01 5.6396280503642515e+00 -1 2 0
4193 1398 2 4.0999999999999998e-01 7.8114269974959791e+00 1.1300562049302126e+01 4.5382595705084698e+00 -1 2 0
341 114 2 4.0999999999999998e-01 8.8434952731414320e+00 1.2974904569030828e+01 1.1601840786851041e+00 0 -1 0
2834 945 2 4.0999999999999998e-01 2.8591232428690905e+00 1.6208062646449466e+01 6.0561038183730460e+00 1 1 0
2833 945 1 -8.1999999999999995e-01 3.6010213075829376e+00 1.6275686413473107e+01 6.8009192920382038e+00 1 1 0
8304 2768 2 4.0999999999999998e-01 8.6015963482104230e+00 1.0694130977250724e+01 9.4361858681527411e-01 0 0 1
2835 945 2 4.0999999999999998e-01 4.2958450577665674e+00 1.5597389339824609e+01 6.5266896895999258e+00 1 1 0
8608 2870 1 -8.1999999999999995e-01 4.5513148830655910e+00 1.2592219148679622e+01 2.0195945643913871e+00 0 1 2
6248 2083 2 4.0999999999999998e-01 2.8016415820632026e+00 1.7168324730870239e+01 3.6311008176465118e+00 0 1 0
8610 2870 2 4.0999999999999998e-01 4.9889203003868872e+00 1.3475903251019753e+01 1.8885326031855914e+00 0 1 2
6249 2083 2 4.0999999999999998e-01 2.3825586538650949e+00 1.6727896460154362e+01 2.1110651970493666e+00 0 1 0
9813 3271 2 4.0999999999999998e-01 4.3359259473681577e+00 1.3236851663406531e+01 4.2910048751682135e+00 -1 0 0
9124 3042 1 -8.1999999999999995e-01 1.7342807067768164e+00 1.3187788219499117e+01 1.6972717478699864e+00 0 0 1
11309 3770 2 4.0999999999999998e-01 1.2470125529312182e+00 1.5882253247152518e+01 5.6525097520481786e+00 1 0 2
9126 3042 2 4.0999999999999998e-01 1.5315338840880219e+00 1.4161643387354125e+01 1.6948002212414393e+00 0 0 1
5158 1720 1 -8.1999999999999995e-01 2.8314567399630625e-01 8.9199501428962673e+00 2.0351549607685158e+00 0 0 1
340 114 1 -8.1999999999999995e-01 8.4360683776131680e+00 1.3671030184369043e+01 1.7133146007363418e+00 0 -1 0
10291 3431 1 -8.1999999999999995e-01 1.0234314060736860e+01 5.5981758789419367e-01 4.5200828053834945e+00 -1 0 0
11310 3770 2 4.0999999999999998e-01 7.8892796407758092e-01 1.6641701003767089e+01 4.4322055685094854e+00 1 0 2
9812 3271 2 4.0999999999999998e-01 3.6972174157612145e+00 1.2968334881664182e+01 5.7473699689901911e+00 -1 0 0
3445 1149 1 -8.1999999999999995e-01 1.5034493416525159e+01 1.1195067223854553e+00 7.6881231319423549e-01 1 0 1
2475 825 2 4.0999999999999998e-01 5.6547097452993018e+00 1.4423986329510692e+01 2.5117561065747182e-03 0 0 1
8302 2768 1 -8.1999999999999995e-01 9.5650807313397266e+00 1.0994880287169732e+01 1.1041259656759852e+00 0 0 1
3592 1198 1 -8.1999999999999995e-01 2.3585367078617412e+00 1.1843798738288932e+01 6.2716452153252860e+00 0 -1 0
4171 1391 1 -8.1999999999999995e-01 1.4179159755769748e+01 2.0447577127638624e+01 4.7708176221903063e-02 1 -1 1
267 89 2 4.0999999999999998e-01 5.7975193290719345e+00 2.9658768591039664e-01 8.5440282606241602e-01 1 0 1
10622 3541 2 4.0999999999999998e-01 1.7390395898868551e+01 2.4983360849653216e+01 2.4620736795383862e+00 0 0 0
8021 2674 2 4.0999999999999998e-01 1.1383158083983713e+00 1.2555992492681005e+01 4.8251832536622556e+00 1 1 0
8143 2715 1 -8.1999999999999995e-01 1.6719034123501498e+01 2.1799120384743876e+01 3.3531098812468763e-01 0 -1 0
6561 2187 2 4.0999999999999998e-01 1.4173935509770351e+01 2.4950085471829766e+01 1.9486529229611449e+00 0 0 0
10651 3551 1 -8.1999999999999995e-01 1.0752361936064112e+00 2.2745042493670766e+01 1.8832206687885303e-01 0 -2 0
1657 553 1 -8.1999999999999995e-01 1.8486383153234385e+01 1.7845268237120685e+01 5.8434531495217819e+00 1 0 0
9670 3224 1 -8.1999999999999995e-01 1.6977052698931463e+01 7.7412716879968757e+00 2.6637318637595186e-01 -1 0 1
10197 3399 2 4.0999999999999998e-01 2.1964195591813755e+01 2.2551552516603138e+01 2.7751689616737854e+00 0 -1 1
7514 2505 2 4.0999999999999998e-01 2.0803767051724051e+01 2.4188259878220300e+01 4.3849176436468991e+00 0 0 1
4266 1422 2 4.0999999999999998e-01 2.4417746346424838e+01 7.9514028143600815e+00 6.0868908019035608e+00 0 1 0
1379 460 2 4.0999999999999998e-01 1.1059085843017874e+01 9.1806752528066493e+00 4.1180623025813583e+00 0 0 1
342 114 2 4.0999999999999998e-01 9.2327480283164896e+00 1.4305227255500737e+01 1.9210676719465387e+00 0 -1 0
6068 2023 2 4.0999999999999998e-01 7.9025782831777951e+00 1.6501914011727198e+01 5.4773949760452698e+00 1 0 1
10759 3587 1 -8.1999999999999995e-01 1.6279721051467046e+01 1.2777232640250990e+01 2.1330661036010046e+00 0 0 -1
8303 2768 2 4.0999999999999998e-01 9.9183839139004562e+00 1.0590225943536725e+01 1.9940236013078312e+00 0 0 1
1378 460 1 -8.1999999999999995e-01 1.1086771264856752e+01 9.9651049426014158e+00 3.4830915594443468e+00 0 0 1
1380 460 2 4.0999999999999998e-01 1.1808093847556137e+01 1.0561388658153170e+01 3.9061691534799694e+00 0 0 1
12320 4107 2 4.0999999999999998e-01 1.2963129922049225e+01 1.0744959604554669e+01 1.4076457685305594e+00 0 1 1
1563 521 2 4.0999999999999998e-01 1.0850896687075451e+01 8.1821048430891423e+00 6.4420070113698324e+00 0 0 1
9134 3045 2 4.0999999999999998e-01 1.4683691166713977e+01 1.2093774084992729e+01 2.5558238200010934e+00 0 1 0
6275 2092 2 4.0999999999999998e-01 1.4291107045822054e+01 8.8943403297437698e+00 5.1158672917259738e+00 0 1 0
6276 2092 2 4.0999999999999998e-01 1.5109995108915003e+01 8.8913002441958504e+00 3.7857077605805163e+00 0 1 0
10761 3587 2 4.0999999999999998e-01 1.6357441075338883e+01 1.3635366176815198e+01 2.5298921841196171e+00 0 0 -1
11250 3750 2 4.0999999999999998e-01 8.2495400581670335e+00 1.3105112295018197e+01 3.7250059635090129e+00 1 0 1
11248 3750 1 -8.1999999999999995e-01 8.8127545240732648e+00 1.2920491576904251e+01 4.5318245801189425e+00 1 0 1
11249 3750 2 4.0999999999999998e-01 9.8315956978423156e+00 1.2922047474701021e+01 4.2514143600870620e+00 1 0 1
8406 2802 2 4.0999999999999998e-01 1.2050521331329348e+01 1.3952741837077850e+01 3.4672780641564209e+00 0 0 1
10321 3441 1 -8.1999999999999995e-01 1.6817722967349464e+01 1.5581578600010534e+01 2.8936481335359905e+00 0 0 1
10323 3441 2 4.0999999999999998e-01 1.7019727461341237e+01 1.5136061685581435e+01 3.7588136896459501e+00 0 0 1
10322 3441 2 4.0999999999999998e-01 1.6936841114172086e+01 1.6573108152015923e+01 3.2441617501641495e+00 0 0 1
6274 2092 1 -8.1999999999999995e-01 1.4622037282015363e+01 9.5218209257809967e+00 4.3961331046283876e+00 0 1 0
10448 3483 2 4.0999999999999998e-01 1.2750687651879616e+01 1.7095790677116405e+01 4.3263702677824245e+00 1 0 1
9135 3045 2 4.0999999999999998e-01 1.4101383492027461e+01 1.0927533861148699e+01 3.5239121367761714e+00 0 1 0
9133 3045 1 -8.1999999999999995e-01 1.3845630586975306e+01 1.1781667277652232e+01 3.0232752189033434e+00 0 1 0
12095 4032 2 4.0999999999999998e-01 1.7377938181172013e+01 1.2084120496245447e+01 5.8762534382106377e+00 0 0 0
8405 2802 2 4.0999999999999998e-01 1.2125498627849765e+01 1.2433163931141817e+01 3.2715051828676032e+00 0 0 1
8404 2802 1 -8.1999999999999995e-01 1.1476872020671482e+01 1.3105675188309975e+01 3.6566627209520499e+00 0 0 1
10447 3483 1 -8.1999999999999995e-01 1.2812269534237444e+01 1.8025276097998134e+01 4.7667235345624235e+00 1 0 1
10449 3483 2 4.0999999999999998e-01 1.2298611717286304e+01 1.7860763192456144e+01 5.5986929484441177e+00 1 0 1
3893 1298 2 4.0999999999999998e-01 1.6373622810384742e+01 1.6186262295110094e+01 9.3051338599586586e-01 0 -1 0
3892 1298 1 -8.1999999999999995e-01 1.6489576640952276e+01 1.6867479115262036e+01 2.3738555629564606e-01 0 -1 0
1508 503 2 4.0999999999999998e-01 1.1908445692592053e+01 1.2337964723387579e+01 5.9923169262776081e+00 0 0 1
8760 2920 2 4.0999999999999998e-01 8.7586441157558639e+00 1.2613712503385489e+01 6.4507639466376885e+00 0 1 1
1507 503 1 -8.1999999999999995e-01 1.1585307897518486e+01 1.1454614899631437e+01 6.2894538957341641e+00 0 0 1
6067 2023 1 -8.1999999999999995e-01 7.5058099630972519e+00 1.6006156999938387e+01 6.2738433500023696e+00 1 0 1
5075 1692 2 4.0999999999999998e-01 1.1624567126842337e+01 1.5632204955317576e+01 2.4369051779267115e+00 0 1 0
5074 1692 1 -8.1999999999999995e-01 1.2399611476725557e+01 1.5776384926817951e+01 2.9696120085342281e+00 0 1 0
5076 1692 2 4.0999999999999998e-01 1.3205131431895351e+01 1.5758265542349024e+01 2.3711466648888182e+00 0 1 0
3593 1198 2 4.0999999999999998e-01 2.3653815519264212e+00 1.0981732262354466e+01 5.7871929962956701e+00 0 -1 0
12407 4136 2 4.0999999999999998e-01 1.5685105785258470e+01 1.5003116748427132e+01 6.6215678771636952e+00 0 -1 -1
10807 3603 1 -8.1999999999999995e-01 1.3764528325100823e+01 1.4679621486575781e+01 6.6959326876459233e+00 0 0 -1
8625 2875 2 4.0999999999999998e-01 1.5760611032992587e+01 1.0245587974716413e+01 5.6731645185002346e+00 0 1 -1
7195 2399 1 -8.1999999999999995e-01 7.2573379255246158e+00 9.7163712671896469e+00 8.6954600082167555e-01 0 0 1