LAMMPS Description

     390  atoms
     426  bonds
     795  angles
     1155  dihedrals
     117  impropers

     69  atom types
     60  bond types
     170  angle types
     256  dihedral types
     5  improper types

  0.00 100.00 xlo xhi
  0.00 100.00 ylo yhi
  0.00 100.00 zlo zhi

Masses

1 1.008
2 15.999
3 12.011
4 12.011
5 12.011
6 12.011
7 12.011
8 1.008
9 12.011
10 12.011
11 12.011
12 1.008
13 12.011
14 12.011
15 1.008
16 12.011
17 15.999
18 14.007
19 14.007
20 14.007
21 1.008
22 1.008
23 12.011
24 15.999
25 15.999
26 1.008
27 12.011
28 15.999
29 12.011
30 12.011
31 12.011
32 12.011
33 12.011
34 14.007
35 12.011
36 12.011
37 12.011
38 12.011
39 1.008
40 12.011
41 15.999
42 1.008
43 12.011
44 15.999
45 15.999
46 12.011
47 12.011
48 12.011
49 12.011
50 1.008
51 12.011
52 15.999
53 1.008
54 1.008
55 12.011
56 12.011
57 12.011
58 14.007
59 12.011
60 12.011
61 32.06
62 12.011
63 14.007
64 12.011
65 1.008
66 12.011
67 1.008
68 22.99
69 35.453

Atoms

1 1 14 0.0 -8.96237 -3.16977 -0.319371
2 1 14 0.0 -8.27772 -4.2805 0.207517
3 1 14 0.0 -6.88732 -4.2073 0.42256
4 1 14 0.0 -6.19924 -3.02805 0.128267
5 1 14 0.0 -6.88662 -1.8936 -0.348189
6 1 14 0.0 -8.27694 -1.95701 -0.551957
7 1 4 -0.12 -4.71413 -2.92611 0.316943
8 1 14 0.0 -3.98899 -4.18438 0.694489
9 1 14 0.0 -4.65646 -5.34778 1.00599
10 1 4 -0.12 -6.16141 -5.40991 0.973411
11 1 14 0.0 -3.92622 -6.54015 1.33455
12 1 14 0.0 -2.53577 -6.56654 1.29549
13 1 14 0.0 -1.82306 -5.34565 1.03367
14 1 14 0.0 -2.56092 -4.14825 0.728009
15 1 13 -0.115 -1.89553 -2.93105 0.517079
16 1 14 0.0 -0.506398 -2.83577 0.453081
17 1 14 0.0 0.253003 -4.05695 0.5866
18 1 40 0.15 -0.413049 -5.21178 1.06756
19 1 14 0.0 1.62358 -4.05528 0.165753
20 1 14 0.0 2.28177 -2.86169 -0.0985547
21 1 14 0.0 1.62413 -1.60598 0.130681
22 1 14 0.0 0.210682 -1.58214 0.315731
23 1 4 -0.12 3.61319 -2.99714 -0.800271
24 1 5 -0.06 3.42413 -3.90066 -2.0353
25 1 5 -0.06 2.99808 -5.32627 -1.59833
26 1 4 -0.12 2.39115 -5.31335 -0.168561
27 1 40 0.15 -0.44695 -0.299936 0.400172
28 1 14 0.0 0.297702 0.903183 0.358248
29 1 14 0.0 1.70793 0.87642 0.254665
30 1 40 0.15 2.3708 -0.366258 0.171895
31 1 43 0.47 2.48988 2.09731 0.231399
32 1 14 0.0 1.77295 3.38682 0.314222
33 1 14 0.0 0.394624 3.38984 0.399458
34 1 43 0.47 -0.387322 2.16326 0.443608
35 1 4 -0.12 -0.35112 4.6893 0.490516
36 1 4 -0.12 0.320531 5.75197 -0.374793
37 1 14 0.0 1.78367 5.859 -0.0369721
38 1 59 0.2 2.49108 4.67954 0.302966
39 1 58 -0.4 3.79899 4.68389 0.596806
40 1 59 0.2 4.47709 5.83401 0.520685
41 1 14 0.0 3.86169 7.06256 0.198742
42 1 14 0.0 2.48548 7.07524 -0.0698515
43 1 4 -0.12 1.77902 8.3681 -0.4169
44 1 4 -0.12 2.59557 9.62297 -0.0892574
45 1 4 -0.12 4.04205 9.46173 -0.55416
46 1 5 -0.06 4.71042 8.31282 0.200085
47 1 4 -0.12 6.11117 8.01428 -0.33762
48 1 14 0.0 6.75726 6.84115 0.356861
49 1 14 0.0 5.92814 5.78055 0.777965
50 1 13 -0.115 6.50071 4.65418 1.38404
51 1 13 -0.115 7.87577 4.59771 1.57417
52 1 14 0.0 8.71841 5.63913 1.15419
53 1 14 0.0 8.15244 6.76868 0.525876
54 1 4 -0.12 -9.03665 -0.744239 -1.04705
55 1 3 -0.18 -8.9785 -0.606235 -2.57659
56 1 3 -0.18 -10.4381 -3.28317 -0.638601
57 1 3 -0.18 -6.08387 -0.647569 -0.639598
58 1 3 -0.18 -9.02979 -5.55036 0.537049
59 1 3 -0.18 -4.70399 -7.78886 1.68606
60 1 3 -0.18 -1.8087 -7.88706 1.42015
61 1 41 -0.585 0.313387 -6.23099 1.64167
62 1 3 -0.18 4.12893 -6.35977 -1.61617
63 1 3 -0.18 4.65644 -3.85577 -2.94194
64 1 41 -0.585 3.69759 -0.389193 0.166661
65 1 41 -0.585 -1.76822 -0.203437 0.521021
66 1 44 -0.47 -1.66344 2.22552 0.567954
67 1 44 -0.47 3.75513 2.03075 0.121255
68 1 3 -0.18 9.02439 7.89423 0.0192485
69 1 3 -0.18 10.2058 5.51829 1.37507
70 1 8 0.06 -4.26332 -2.53086 -0.610149
71 1 8 0.06 -4.49509 -2.14255 1.06834
72 1 8 0.06 -6.52927 -5.60622 1.99972
73 1 8 0.06 -6.46339 -6.30582 0.404756
74 1 15 0.115 -2.47598 -2.02898 0.412798
75 1 8 0.06 4.01085 -2.03049 -1.11008
76 1 8 0.06 4.36773 -3.44932 -0.130099
77 1 8 0.06 2.58262 -3.46625 -2.59966
78 1 8 0.06 2.21058 -5.67203 -2.28639
79 1 8 0.06 3.23805 -5.40463 0.539051
80 1 8 0.06 1.78237 -6.2166 -0.0650828
81 1 8 0.06 -1.40001 4.53271 0.208724
82 1 8 0.06 -0.351697 5.01864 1.54663
83 1 8 0.06 -0.192448 6.71358 -0.249716
84 1 8 0.06 0.21277 5.47512 -1.4407
85 1 8 0.06 1.53795 8.35613 -1.4952
86 1 8 0.06 0.809705 8.41392 0.10327
87 1 8 0.06 2.5887 9.78949 1.00093
88 1 8 0.06 2.1236 10.5027 -0.55236
89 1 8 0.06 4.61549 10.3897 -0.401075
90 1 8 0.06 4.06186 9.24026 -1.63588
91 1 8 0.06 4.82719 8.62127 1.25865
92 1 8 0.06 6.03636 7.80303 -1.42217
93 1 8 0.06 6.72623 8.91967 -0.240611
94 1 15 0.115 5.84946 3.83155 1.67932
95 1 15 0.115 8.32103 3.72158 2.05068
96 1 8 0.06 -8.63317 0.166565 -0.580624
97 1 8 0.06 -10.0853 -0.797762 -0.723802
98 1 8 0.06 -9.38533 -1.50751 -3.06016
99 1 8 0.06 -7.93767 -0.493506 -2.91485
100 1 8 0.06 -9.55412 0.265351 -2.9251
101 1 8 0.06 -10.7157 -4.31407 -0.89262
102 1 8 0.06 -10.7169 -2.65096 -1.49162
103 1 8 0.06 -11.0667 -2.97565 0.21548
104 1 8 0.06 -5.32173 -0.84679 -1.41105
105 1 8 0.06 -5.53157 -0.309191 0.252483
106 1 8 0.06 -6.69755 0.186455 -0.99505
107 1 8 0.06 -8.51493 -6.14437 1.30241
108 1 8 0.06 -9.14529 -6.196 -0.3516
109 1 8 0.06 -10.0393 -5.3341 0.911812
110 1 8 0.06 -4.15623 -8.41987 2.39727
111 1 8 0.06 -4.91507 -8.40317 0.792945
112 1 8 0.06 -5.67116 -7.54444 2.14213
113 1 8 0.06 -0.969176 -7.93572 0.716668
114 1 8 0.06 -2.47764 -8.72709 1.20157
115 1 8 0.06 -1.38399 -8.03662 2.42523
116 1 42 0.435 1.20569 -5.89767 1.82711
117 1 8 0.06 4.52558 -6.51949 -2.62826
118 1 8 0.06 3.76768 -7.32702 -1.23406
119 1 8 0.06 4.96168 -6.03563 -0.971627
120 1 8 0.06 4.84524 -2.8245 -3.27523
121 1 8 0.06 4.52116 -4.48386 -3.83547
122 1 8 0.06 5.55475 -4.20916 -2.414
123 1 42 0.435 3.96265 0.647719 0.147403
124 1 42 0.435 -1.95955 0.842695 0.562916
125 1 8 0.06 8.76887 8.15948 -1.01799
126 1 8 0.06 10.0887 7.63399 0.0474482
127 1 8 0.06 8.88931 8.80782 0.623157
128 1 8 0.06 10.7576 5.51968 0.420724
129 1 8 0.06 10.4448 4.58422 1.9013
130 1 8 0.06 10.597 6.3581 1.97137
131 2 14 0.0 -8.96237 -3.16977 -0.319371
132 2 14 0.0 -8.27772 -4.2805 0.207517
133 2 14 0.0 -6.88732 -4.2073 0.42256
134 2 14 0.0 -6.19924 -3.02805 0.128267
135 2 14 0.0 -6.88662 -1.8936 -0.348189
136 2 14 0.0 -8.27694 -1.95701 -0.551957
137 2 4 -0.12 -4.71413 -2.92611 0.316943
138 2 14 0.0 -3.98899 -4.18438 0.694489
139 2 14 0.0 -4.65646 -5.34778 1.00599
140 2 4 -0.12 -6.16141 -5.40991 0.973411
141 2 14 0.0 -3.92622 -6.54015 1.33455
142 2 14 0.0 -2.53577 -6.56654 1.29549
143 2 14 0.0 -1.82306 -5.34565 1.03367
144 2 14 0.0 -2.56092 -4.14825 0.728009
145 2 13 -0.115 -1.89553 -2.93105 0.517079
146 2 14 0.0 -0.506398 -2.83577 0.453081
147 2 14 0.0 0.253003 -4.05695 0.5866
148 2 40 0.15 -0.413049 -5.21178 1.06756
149 2 14 0.0 1.62358 -4.05528 0.165753
150 2 14 0.0 2.28177 -2.86169 -0.0985547
151 2 14 0.0 1.62413 -1.60598 0.130681
152 2 14 0.0 0.210682 -1.58214 0.315731
153 2 4 -0.12 3.61319 -2.99714 -0.800271
154 2 5 -0.06 3.42413 -3.90066 -2.0353
155 2 5 -0.06 2.99808 -5.32627 -1.59833
156 2 4 -0.12 2.39115 -5.31335 -0.168561
157 2 40 0.15 -0.44695 -0.299936 0.400172
158 2 14 0.0 0.297702 0.903183 0.358248
159 2 14 0.0 1.70793 0.87642 0.254665
160 2 40 0.15 2.3708 -0.366258 0.171895
161 2 43 0.47 2.48988 2.09731 0.231399
162 2 14 0.0 1.77295 3.38682 0.314222
163 2 14 0.0 0.394624 3.38984 0.399458
164 2 43 0.47 -0.387322 2.16326 0.443608
165 2 4 -0.12 -0.35112 4.6893 0.490516
166 2 4 -0.12 0.320531 5.75197 -0.374793
167 2 14 0.0 1.78367 5.859 -0.0369721
168 2 59 0.2 2.49108 4.67954 0.302966
169 2 58 -0.4 3.79899 4.68389 0.596806
170 2 59 0.2 4.47709 5.83401 0.520685
171 2 14 0.0 3.86169 7.06256 0.198742
172 2 14 0.0 2.48548 7.07524 -0.0698515
173 2 4 -0.12 1.77902 8.3681 -0.4169
174 2 4 -0.12 2.59557 9.62297 -0.0892574
175 2 4 -0.12 4.04205 9.46173 -0.55416
176 2 5 -0.06 4.71042 8.31282 0.200085
177 2 4 -0.12 6.11117 8.01428 -0.33762
178 2 14 0.0 6.75726 6.84115 0.356861
179 2 14 0.0 5.92814 5.78055 0.777965
180 2 13 -0.115 6.50071 4.65418 1.38404
181 2 13 -0.115 7.87577 4.59771 1.57417
182 2 14 0.0 8.71841 5.63913 1.15419
183 2 14 0.0 8.15244 6.76868 0.525876
184 2 4 -0.12 -9.03665 -0.744239 -1.04705
185 2 3 -0.18 -8.9785 -0.606235 -2.57659
186 2 3 -0.18 -10.4381 -3.28317 -0.638601
187 2 3 -0.18 -6.08387 -0.647569 -0.639598
188 2 3 -0.18 -9.02979 -5.55036 0.537049
189 2 3 -0.18 -4.70399 -7.78886 1.68606
190 2 3 -0.18 -1.8087 -7.88706 1.42015
191 2 41 -0.585 0.313387 -6.23099 1.64167
192 2 3 -0.18 4.12893 -6.35977 -1.61617
193 2 3 -0.18 4.65644 -3.85577 -2.94194
194 2 41 -0.585 3.69759 -0.389193 0.166661
195 2 41 -0.585 -1.76822 -0.203437 0.521021
196 2 44 -0.47 -1.66344 2.22552 0.567954
197 2 44 -0.47 3.75513 2.03075 0.121255
198 2 3 -0.18 9.02439 7.89423 0.0192485
199 2 3 -0.18 10.2058 5.51829 1.37507
200 2 8 0.06 -4.26332 -2.53086 -0.610149
201 2 8 0.06 -4.49509 -2.14255 1.06834
202 2 8 0.06 -6.52927 -5.60622 1.99972
203 2 8 0.06 -6.46339 -6.30582 0.404756
204 2 15 0.115 -2.47598 -2.02898 0.412798
205 2 8 0.06 4.01085 -2.03049 -1.11008
206 2 8 0.06 4.36773 -3.44932 -0.130099
207 2 8 0.06 2.58262 -3.46625 -2.59966
208 2 8 0.06 2.21058 -5.67203 -2.28639
209 2 8 0.06 3.23805 -5.40463 0.539051
210 2 8 0.06 1.78237 -6.2166 -0.0650828
211 2 8 0.06 -1.40001 4.53271 0.208724
212 2 8 0.06 -0.351697 5.01864 1.54663
213 2 8 0.06 -0.192448 6.71358 -0.249716
214 2 8 0.06 0.21277 5.47512 -1.4407
215 2 8 0.06 1.53795 8.35613 -1.4952
216 2 8 0.06 0.809705 8.41392 0.10327
217 2 8 0.06 2.5887 9.78949 1.00093
218 2 8 0.06 2.1236 10.5027 -0.55236
219 2 8 0.06 4.61549 10.3897 -0.401075
220 2 8 0.06 4.06186 9.24026 -1.63588
221 2 8 0.06 4.82719 8.62127 1.25865
222 2 8 0.06 6.03636 7.80303 -1.42217
223 2 8 0.06 6.72623 8.91967 -0.240611
224 2 15 0.115 5.84946 3.83155 1.67932
225 2 15 0.115 8.32103 3.72158 2.05068
226 2 8 0.06 -8.63317 0.166565 -0.580624
227 2 8 0.06 -10.0853 -0.797762 -0.723802
228 2 8 0.06 -9.38533 -1.50751 -3.06016
229 2 8 0.06 -7.93767 -0.493506 -2.91485
230 2 8 0.06 -9.55412 0.265351 -2.9251
231 2 8 0.06 -10.7157 -4.31407 -0.89262
232 2 8 0.06 -10.7169 -2.65096 -1.49162
233 2 8 0.06 -11.0667 -2.97565 0.21548
234 2 8 0.06 -5.32173 -0.84679 -1.41105
235 2 8 0.06 -5.53157 -0.309191 0.252483
236 2 8 0.06 -6.69755 0.186455 -0.99505
237 2 8 0.06 -8.51493 -6.14437 1.30241
238 2 8 0.06 -9.14529 -6.196 -0.3516
239 2 8 0.06 -10.0393 -5.3341 0.911812
240 2 8 0.06 -4.15623 -8.41987 2.39727
241 2 8 0.06 -4.91507 -8.40317 0.792945
242 2 8 0.06 -5.67116 -7.54444 2.14213
243 2 8 0.06 -0.969176 -7.93572 0.716668
244 2 8 0.06 -2.47764 -8.72709 1.20157
245 2 8 0.06 -1.38399 -8.03662 2.42523
246 2 42 0.435 1.20569 -5.89767 1.82711
247 2 8 0.06 4.52558 -6.51949 -2.62826
248 2 8 0.06 3.76768 -7.32702 -1.23406
249 2 8 0.06 4.96168 -6.03563 -0.971627
250 2 8 0.06 4.84524 -2.8245 -3.27523
251 2 8 0.06 4.52116 -4.48386 -3.83547
252 2 8 0.06 5.55475 -4.20916 -2.414
253 2 42 0.435 3.96265 0.647719 0.147403
254 2 42 0.435 -1.95955 0.842695 0.562916
255 2 8 0.06 8.76887 8.15948 -1.01799
256 2 8 0.06 10.0887 7.63399 0.0474482
257 2 8 0.06 8.88931 8.80782 0.623157
258 2 8 0.06 10.7576 5.51968 0.420724
259 2 8 0.06 10.4448 4.58422 1.9013
260 2 8 0.06 10.597 6.3581 1.97137
261 3 14 0.0 -8.96237 -3.16977 -0.319371
262 3 14 0.0 -8.27772 -4.2805 0.207517
263 3 14 0.0 -6.88732 -4.2073 0.42256
264 3 14 0.0 -6.19924 -3.02805 0.128267
265 3 14 0.0 -6.88662 -1.8936 -0.348189
266 3 14 0.0 -8.27694 -1.95701 -0.551957
267 3 4 -0.12 -4.71413 -2.92611 0.316943
268 3 14 0.0 -3.98899 -4.18438 0.694489
269 3 14 0.0 -4.65646 -5.34778 1.00599
270 3 4 -0.12 -6.16141 -5.40991 0.973411
271 3 14 0.0 -3.92622 -6.54015 1.33455
272 3 14 0.0 -2.53577 -6.56654 1.29549
273 3 14 0.0 -1.82306 -5.34565 1.03367
274 3 14 0.0 -2.56092 -4.14825 0.728009
275 3 13 -0.115 -1.89553 -2.93105 0.517079
276 3 14 0.0 -0.506398 -2.83577 0.453081
277 3 14 0.0 0.253003 -4.05695 0.5866
278 3 40 0.15 -0.413049 -5.21178 1.06756
279 3 14 0.0 1.62358 -4.05528 0.165753
280 3 14 0.0 2.28177 -2.86169 -0.0985547
281 3 14 0.0 1.62413 -1.60598 0.130681
282 3 14 0.0 0.210682 -1.58214 0.315731
283 3 4 -0.12 3.61319 -2.99714 -0.800271
284 3 5 -0.06 3.42413 -3.90066 -2.0353
285 3 5 -0.06 2.99808 -5.32627 -1.59833
286 3 4 -0.12 2.39115 -5.31335 -0.168561
287 3 40 0.15 -0.44695 -0.299936 0.400172
288 3 14 0.0 0.297702 0.903183 0.358248
289 3 14 0.0 1.70793 0.87642 0.254665
290 3 40 0.15 2.3708 -0.366258 0.171895
291 3 43 0.47 2.48988 2.09731 0.231399
292 3 14 0.0 1.77295 3.38682 0.314222
293 3 14 0.0 0.394624 3.38984 0.399458
294 3 43 0.47 -0.387322 2.16326 0.443608
295 3 4 -0.12 -0.35112 4.6893 0.490516
296 3 4 -0.12 0.320531 5.75197 -0.374793
297 3 14 0.0 1.78367 5.859 -0.0369721
298 3 59 0.2 2.49108 4.67954 0.302966
299 3 58 -0.4 3.79899 4.68389 0.596806
300 3 59 0.2 4.47709 5.83401 0.520685
301 3 14 0.0 3.86169 7.06256 0.198742
302 3 14 0.0 2.48548 7.07524 -0.0698515
303 3 4 -0.12 1.77902 8.3681 -0.4169
304 3 4 -0.12 2.59557 9.62297 -0.0892574
305 3 4 -0.12 4.04205 9.46173 -0.55416
306 3 5 -0.06 4.71042 8.31282 0.200085
307 3 4 -0.12 6.11117 8.01428 -0.33762
308 3 14 0.0 6.75726 6.84115 0.356861
309 3 14 0.0 5.92814 5.78055 0.777965
310 3 13 -0.115 6.50071 4.65418 1.38404
311 3 13 -0.115 7.87577 4.59771 1.57417
312 3 14 0.0 8.71841 5.63913 1.15419
313 3 14 0.0 8.15244 6.76868 0.525876
314 3 4 -0.12 -9.03665 -0.744239 -1.04705
315 3 3 -0.18 -8.9785 -0.606235 -2.57659
316 3 3 -0.18 -10.4381 -3.28317 -0.638601
317 3 3 -0.18 -6.08387 -0.647569 -0.639598
318 3 3 -0.18 -9.02979 -5.55036 0.537049
319 3 3 -0.18 -4.70399 -7.78886 1.68606
320 3 3 -0.18 -1.8087 -7.88706 1.42015
321 3 41 -0.585 0.313387 -6.23099 1.64167
322 3 3 -0.18 4.12893 -6.35977 -1.61617
323 3 3 -0.18 4.65644 -3.85577 -2.94194
324 3 41 -0.585 3.69759 -0.389193 0.166661
325 3 41 -0.585 -1.76822 -0.203437 0.521021
326 3 44 -0.47 -1.66344 2.22552 0.567954
327 3 44 -0.47 3.75513 2.03075 0.121255
328 3 3 -0.18 9.02439 7.89423 0.0192485
329 3 3 -0.18 10.2058 5.51829 1.37507
330 3 8 0.06 -4.26332 -2.53086 -0.610149
331 3 8 0.06 -4.49509 -2.14255 1.06834
332 3 8 0.06 -6.52927 -5.60622 1.99972
333 3 8 0.06 -6.46339 -6.30582 0.404756
334 3 15 0.115 -2.47598 -2.02898 0.412798
335 3 8 0.06 4.01085 -2.03049 -1.11008
336 3 8 0.06 4.36773 -3.44932 -0.130099
337 3 8 0.06 2.58262 -3.46625 -2.59966
338 3 8 0.06 2.21058 -5.67203 -2.28639
339 3 8 0.06 3.23805 -5.40463 0.539051
340 3 8 0.06 1.78237 -6.2166 -0.0650828
341 3 8 0.06 -1.40001 4.53271 0.208724
342 3 8 0.06 -0.351697 5.01864 1.54663
343 3 8 0.06 -0.192448 6.71358 -0.249716
344 3 8 0.06 0.21277 5.47512 -1.4407
345 3 8 0.06 1.53795 8.35613 -1.4952
346 3 8 0.06 0.809705 8.41392 0.10327
347 3 8 0.06 2.5887 9.78949 1.00093
348 3 8 0.06 2.1236 10.5027 -0.55236
349 3 8 0.06 4.61549 10.3897 -0.401075
350 3 8 0.06 4.06186 9.24026 -1.63588
351 3 8 0.06 4.82719 8.62127 1.25865
352 3 8 0.06 6.03636 7.80303 -1.42217
353 3 8 0.06 6.72623 8.91967 -0.240611
354 3 15 0.115 5.84946 3.83155 1.67932
355 3 15 0.115 8.32103 3.72158 2.05068
356 3 8 0.06 -8.63317 0.166565 -0.580624
357 3 8 0.06 -10.0853 -0.797762 -0.723802
358 3 8 0.06 -9.38533 -1.50751 -3.06016
359 3 8 0.06 -7.93767 -0.493506 -2.91485
360 3 8 0.06 -9.55412 0.265351 -2.9251
361 3 8 0.06 -10.7157 -4.31407 -0.89262
362 3 8 0.06 -10.7169 -2.65096 -1.49162
363 3 8 0.06 -11.0667 -2.97565 0.21548
364 3 8 0.06 -5.32173 -0.84679 -1.41105
365 3 8 0.06 -5.53157 -0.309191 0.252483
366 3 8 0.06 -6.69755 0.186455 -0.99505
367 3 8 0.06 -8.51493 -6.14437 1.30241
368 3 8 0.06 -9.14529 -6.196 -0.3516
369 3 8 0.06 -10.0393 -5.3341 0.911812
370 3 8 0.06 -4.15623 -8.41987 2.39727
371 3 8 0.06 -4.91507 -8.40317 0.792945
372 3 8 0.06 -5.67116 -7.54444 2.14213
373 3 8 0.06 -0.969176 -7.93572 0.716668
374 3 8 0.06 -2.47764 -8.72709 1.20157
375 3 8 0.06 -1.38399 -8.03662 2.42523
376 3 42 0.435 1.20569 -5.89767 1.82711
377 3 8 0.06 4.52558 -6.51949 -2.62826
378 3 8 0.06 3.76768 -7.32702 -1.23406
379 3 8 0.06 4.96168 -6.03563 -0.971627
380 3 8 0.06 4.84524 -2.8245 -3.27523
381 3 8 0.06 4.52116 -4.48386 -3.83547
382 3 8 0.06 5.55475 -4.20916 -2.414
383 3 42 0.435 3.96265 0.647719 0.147403
384 3 42 0.435 -1.95955 0.842695 0.562916
385 3 8 0.06 8.76887 8.15948 -1.01799
386 3 8 0.06 10.0887 7.63399 0.0474482
387 3 8 0.06 8.88931 8.80782 0.623157
388 3 8 0.06 10.7576 5.51968 0.420724
389 3 8 0.06 10.4448 4.58422 1.9013
390 3 8 0.06 10.597 6.3581 1.97137

Bonds

1 56 1 2 
2 56 1 6 
3 30 1 56 
4 30 2 58 
5 56 2 3 
6 56 3 4 
7 30 3 10 
8 56 4 5 
9 30 4 7 
10 30 5 57 
11 56 5 6 
12 30 6 54 
13 28 7 70 
14 28 7 71 
15 30 7 8 
16 56 8 9 
17 56 8 14 
18 30 9 10 
19 56 9 11 
20 28 10 73 
21 28 10 72 
22 30 11 59 
23 56 11 12 
24 30 12 60 
25 56 12 13 
26 56 13 18 
27 56 13 14 
28 56 14 15 
29 57 15 74 
30 56 15 16 
31 56 16 17 
32 56 16 22 
33 56 17 18 
34 56 17 19 
35 20 18 61 
36 30 19 26 
37 56 19 20 
38 56 20 21 
39 30 20 23 
40 56 21 30 
41 56 21 22 
42 56 22 27 
43 28 23 76 
44 28 23 75 
45 22 23 24 
46 22 24 63 
47 22 24 25 
48 28 24 77 
49 22 25 26 
50 28 25 78 
51 22 25 62 
52 28 26 79 
53 28 26 80 
54 20 27 65 
55 56 27 28 
56 11 28 34 
57 56 28 29 
58 56 29 30 
59 11 29 31 
60 20 30 64 
61 2 31 67 
62 11 31 32 
63 56 32 33 
64 56 32 38 
65 11 33 34 
66 30 33 35 
67 2 34 66 
68 28 35 81 
69 22 35 36 
70 28 35 82 
71 28 36 84 
72 30 36 37 
73 28 36 83 
74 56 37 42 
75 56 37 38 
76 59 38 39 
77 59 39 40 
78 56 40 41 
79 56 40 49 
80 56 41 42 
81 30 41 46 
82 30 42 43 
83 22 43 44 
84 28 43 85 
85 28 43 86 
86 22 44 45 
87 28 44 87 
88 28 44 88 
89 28 45 89 
90 28 45 90 
91 22 45 46 
92 28 46 91 
93 22 46 47 
94 28 47 92 
95 28 47 93 
96 30 47 48 
97 56 48 49 
98 56 48 53 
99 56 49 50 
100 56 50 51 
101 57 50 94 
102 56 51 52 
103 57 51 95 
104 30 52 69 
105 56 52 53 
106 30 53 68 
107 28 54 97 
108 22 54 55 
109 28 54 96 
110 28 55 98 
111 28 55 99 
112 28 55 100 
113 28 56 101 
114 28 56 102 
115 28 56 103 
116 28 57 105 
117 28 57 106 
118 28 57 104 
119 28 58 107 
120 28 58 108 
121 28 58 109 
122 28 59 110 
123 28 59 111 
124 28 59 112 
125 28 60 113 
126 28 60 114 
127 28 60 115 
128 14 61 116 
129 28 62 117 
130 28 62 118 
131 28 62 119 
132 28 63 121 
133 28 63 122 
134 28 63 120 
135 14 64 123 
136 14 65 124 
137 28 68 125 
138 28 68 126 
139 28 68 127 
140 28 69 129 
141 28 69 130 
142 28 69 128 
143 56 131 132 
144 56 131 136 
145 30 131 186 
146 30 132 188 
147 56 132 133 
148 56 133 134 
149 30 133 140 
150 56 134 135 
151 30 134 137 
152 30 135 187 
153 56 135 136 
154 30 136 184 
155 28 137 200 
156 28 137 201 
157 30 137 138 
158 56 138 139 
159 56 138 144 
160 30 139 140 
161 56 139 141 
162 28 140 203 
163 28 140 202 
164 30 141 189 
165 56 141 142 
166 30 142 190 
167 56 142 143 
168 56 143 148 
169 56 143 144 
170 56 144 145 
171 57 145 204 
172 56 145 146 
173 56 146 147 
174 56 146 152 
175 56 147 148 
176 56 147 149 
177 20 148 191 
178 30 149 156 
179 56 149 150 
180 56 150 151 
181 30 150 153 
182 56 151 160 
183 56 151 152 
184 56 152 157 
185 28 153 206 
186 28 153 205 
187 22 153 154 
188 22 154 193 
189 22 154 155 
190 28 154 207 
191 22 155 156 
192 28 155 208 
193 22 155 192 
194 28 156 209 
195 28 156 210 
196 20 157 195 
197 56 157 158 
198 11 158 164 
199 56 158 159 
200 56 159 160 
201 11 159 161 
202 20 160 194 
203 2 161 197 
204 11 161 162 
205 56 162 163 
206 56 162 168 
207 11 163 164 
208 30 163 165 
209 2 164 196 
210 28 165 211 
211 22 165 166 
212 28 165 212 
213 28 166 214 
214 30 166 167 
215 28 166 213 
216 56 167 172 
217 56 167 168 
218 59 168 169 
219 59 169 170 
220 56 170 171 
221 56 170 179 
222 56 171 172 
223 30 171 176 
224 30 172 173 
225 22 173 174 
226 28 173 215 
227 28 173 216 
228 22 174 175 
229 28 174 217 
230 28 174 218 
231 28 175 219 
232 28 175 220 
233 22 175 176 
234 28 176 221 
235 22 176 177 
236 28 177 222 
237 28 177 223 
238 30 177 178 
239 56 178 179 
240 56 178 183 
241 56 179 180 
242 56 180 181 
243 57 180 224 
244 56 181 182 
245 57 181 225 
246 30 182 199 
247 56 182 183 
248 30 183 198 
249 28 184 227 
250 22 184 185 
251 28 184 226 
252 28 185 228 
253 28 185 229 
254 28 185 230 
255 28 186 231 
256 28 186 232 
257 28 186 233 
258 28 187 235 
259 28 187 236 
260 28 187 234 
261 28 188 237 
262 28 188 238 
263 28 188 239 
264 28 189 240 
265 28 189 241 
266 28 189 242 
267 28 190 243 
268 28 190 244 
269 28 190 245 
270 14 191 246 
271 28 192 247 
272 28 192 248 
273 28 192 249 
274 28 193 251 
275 28 193 252 
276 28 193 250 
277 14 194 253 
278 14 195 254 
279 28 198 255 
280 28 198 256 
281 28 198 257 
282 28 199 259 
283 28 199 260 
284 28 199 258 
285 56 261 262 
286 56 261 266 
287 30 261 316 
288 30 262 318 
289 56 262 263 
290 56 263 264 
291 30 263 270 
292 56 264 265 
293 30 264 267 
294 30 265 317 
295 56 265 266 
296 30 266 314 
297 28 267 330 
298 28 267 331 
299 30 267 268 
300 56 268 269 
301 56 268 274 
302 30 269 270 
303 56 269 271 
304 28 270 333 
305 28 270 332 
306 30 271 319 
307 56 271 272 
308 30 272 320 
309 56 272 273 
310 56 273 278 
311 56 273 274 
312 56 274 275 
313 57 275 334 
314 56 275 276 
315 56 276 277 
316 56 276 282 
317 56 277 278 
318 56 277 279 
319 20 278 321 
320 30 279 286 
321 56 279 280 
322 56 280 281 
323 30 280 283 
324 56 281 290 
325 56 281 282 
326 56 282 287 
327 28 283 336 
328 28 283 335 
329 22 283 284 
330 22 284 323 
331 22 284 285 
332 28 284 337 
333 22 285 286 
334 28 285 338 
335 22 285 322 
336 28 286 339 
337 28 286 340 
338 20 287 325 
339 56 287 288 
340 11 288 294 
341 56 288 289 
342 56 289 290 
343 11 289 291 
344 20 290 324 
345 2 291 327 
346 11 291 292 
347 56 292 293 
348 56 292 298 
349 11 293 294 
350 30 293 295 
351 2 294 326 
352 28 295 341 
353 22 295 296 
354 28 295 342 
355 28 296 344 
356 30 296 297 
357 28 296 343 
358 56 297 302 
359 56 297 298 
360 59 298 299 
361 59 299 300 
362 56 300 301 
363 56 300 309 
364 56 301 302 
365 30 301 306 
366 30 302 303 
367 22 303 304 
368 28 303 345 
369 28 303 346 
370 22 304 305 
371 28 304 347 
372 28 304 348 
373 28 305 349 
374 28 305 350 
375 22 305 306 
376 28 306 351 
377 22 306 307 
378 28 307 352 
379 28 307 353 
380 30 307 308 
381 56 308 309 
382 56 308 313 
383 56 309 310 
384 56 310 311 
385 57 310 354 
386 56 311 312 
387 57 311 355 
388 30 312 329 
389 56 312 313 
390 30 313 328 
391 28 314 357 
392 22 314 315 
393 28 314 356 
394 28 315 358 
395 28 315 359 
396 28 315 360 
397 28 316 361 
398 28 316 362 
399 28 316 363 
400 28 317 365 
401 28 317 366 
402 28 317 364 
403 28 318 367 
404 28 318 368 
405 28 318 369 
406 28 319 370 
407 28 319 371 
408 28 319 372 
409 28 320 373 
410 28 320 374 
411 28 320 375 
412 14 321 376 
413 28 322 377 
414 28 322 378 
415 28 322 379 
416 28 323 381 
417 28 323 382 
418 28 323 380 
419 14 324 383 
420 14 325 384 
421 28 328 385 
422 28 328 386 
423 28 328 387 
424 28 329 389 
425 28 329 390 
426 28 329 388 

Angles

1 142 1 2 58 
2 140 1 2 3 
3 140 1 6 5 
4 142 1 6 54 
5 73 1 56 101 
6 73 1 56 102 
7 73 1 56 103 
8 140 2 1 6 
9 142 2 1 56 
10 73 2 58 107 
11 73 2 58 108 
12 73 2 58 109 
13 140 2 3 4 
14 142 2 3 10 
15 142 3 2 58 
16 140 3 4 5 
17 142 3 4 7 
18 73 3 10 73 
19 75 3 10 9 
20 73 3 10 72 
21 142 4 3 10 
22 142 4 5 57 
23 140 4 5 6 
24 73 4 7 70 
25 73 4 7 71 
26 75 4 7 8 
27 73 5 57 105 
28 73 5 57 106 
29 73 5 57 104 
30 142 5 4 7 
31 142 5 6 54 
32 142 6 1 56 
33 142 6 5 57 
34 73 6 54 97 
35 80 6 54 55 
36 73 6 54 96 
37 142 7 8 9 
38 142 7 8 14 
39 142 8 9 10 
40 140 8 9 11 
41 140 8 14 13 
42 140 8 14 15 
43 73 8 7 70 
44 73 8 7 71 
45 73 9 10 73 
46 73 9 10 72 
47 142 9 11 59 
48 140 9 11 12 
49 140 9 8 14 
50 142 10 9 11 
51 73 11 59 110 
52 73 11 59 111 
53 73 11 59 112 
54 142 11 12 60 
55 140 11 12 13 
56 142 12 11 59 
57 73 12 60 113 
58 73 12 60 114 
59 73 12 60 115 
60 140 12 13 18 
61 140 12 13 14 
62 140 13 18 17 
63 141 13 18 61 
64 142 13 12 60 
65 140 13 14 15 
66 140 14 13 18 
67 152 14 15 74 
68 140 14 15 16 
69 140 15 16 17 
70 140 15 16 22 
71 140 16 17 18 
72 140 16 17 19 
73 140 16 22 27 
74 140 16 22 21 
75 152 16 15 74 
76 141 17 18 61 
77 142 17 19 26 
78 140 17 19 20 
79 140 17 16 22 
80 140 18 17 19 
81 44 18 61 116 
82 80 19 26 25 
83 73 19 26 79 
84 73 19 26 80 
85 140 19 20 21 
86 142 19 20 23 
87 142 20 19 26 
88 140 20 21 30 
89 140 20 21 22 
90 73 20 23 76 
91 73 20 23 75 
92 80 20 23 24 
93 140 21 30 29 
94 141 21 30 64 
95 142 21 20 23 
96 140 21 22 27 
97 141 22 27 65 
98 140 22 27 28 
99 140 22 21 30 
100 47 23 24 63 
101 47 23 24 25 
102 68 23 24 77 
103 68 24 63 121 
104 68 24 63 122 
105 68 24 63 120 
106 47 24 25 26 
107 68 24 25 78 
108 47 24 25 62 
109 68 24 23 76 
110 68 24 23 75 
111 68 25 26 79 
112 68 25 26 80 
113 68 25 62 117 
114 68 25 62 118 
115 68 25 62 119 
116 47 25 24 63 
117 68 25 24 77 
118 68 26 25 78 
119 47 26 25 62 
120 44 27 65 124 
121 149 27 28 34 
122 140 27 28 29 
123 33 28 34 33 
124 31 28 34 66 
125 141 28 27 65 
126 140 28 29 30 
127 149 28 29 31 
128 149 29 28 34 
129 141 29 30 64 
130 31 29 31 67 
131 33 29 31 32 
132 149 30 29 31 
133 44 30 64 123 
134 149 31 32 33 
135 149 31 32 38 
136 149 32 33 34 
137 142 32 33 35 
138 140 32 38 37 
139 159 32 38 39 
140 31 32 31 67 
141 31 33 34 66 
142 73 33 35 81 
143 80 33 35 36 
144 73 33 35 82 
145 140 33 32 38 
146 139 34 33 35 
147 68 35 36 84 
148 80 35 36 37 
149 68 35 36 83 
150 68 36 35 81 
151 68 36 35 82 
152 142 36 37 42 
153 142 36 37 38 
154 140 37 42 41 
155 142 37 42 43 
156 73 37 36 84 
157 73 37 36 83 
158 159 37 38 39 
159 140 38 37 42 
160 167 38 39 40 
161 159 39 40 41 
162 159 39 40 49 
163 140 40 41 42 
164 142 40 41 46 
165 140 40 49 50 
166 140 40 49 48 
167 142 41 42 43 
168 73 41 46 91 
169 80 41 46 45 
170 80 41 46 47 
171 140 41 40 49 
172 142 42 41 46 
173 80 42 43 44 
174 73 42 43 85 
175 73 42 43 86 
176 47 43 44 45 
177 68 43 44 87 
178 68 43 44 88 
179 68 44 43 85 
180 68 44 43 86 
181 68 44 45 89 
182 68 44 45 90 
183 47 44 45 46 
184 68 45 44 87 
185 68 45 44 88 
186 68 45 46 91 
187 47 45 46 47 
188 68 46 45 89 
189 68 46 45 90 
190 68 46 47 92 
191 68 46 47 93 
192 80 46 47 48 
193 68 47 46 91 
194 142 47 48 49 
195 142 47 48 53 
196 140 48 49 50 
197 142 48 53 68 
198 140 48 53 52 
199 73 48 47 92 
200 73 48 47 93 
201 140 49 50 51 
202 152 49 50 94 
203 140 49 48 53 
204 140 50 51 52 
205 152 50 51 95 
206 152 51 50 94 
207 142 51 52 69 
208 140 51 52 53 
209 152 52 51 95 
210 73 52 69 129 
211 73 52 69 130 
212 73 52 69 128 
213 142 52 53 68 
214 73 53 68 125 
215 73 53 68 126 
216 73 53 68 127 
217 142 53 52 69 
218 68 54 55 98 
219 68 54 55 99 
220 68 54 55 100 
221 68 55 54 97 
222 68 55 54 96 
223 68 62 25 78 
224 68 63 24 77 
225 61 70 7 71 
226 61 72 10 73 
227 61 75 23 76 
228 61 79 26 80 
229 61 81 35 82 
230 61 83 36 84 
231 61 85 43 86 
232 61 87 44 88 
233 61 89 45 90 
234 61 92 47 93 
235 61 96 54 97 
236 61 98 55 99 
237 61 98 55 100 
238 61 99 55 100 
239 61 101 56 102 
240 61 101 56 103 
241 61 102 56 103 
242 61 104 57 105 
243 61 104 57 106 
244 61 105 57 106 
245 61 107 58 108 
246 61 107 58 109 
247 61 108 58 109 
248 61 110 59 111 
249 61 110 59 112 
250 61 111 59 112 
251 61 113 60 114 
252 61 113 60 115 
253 61 114 60 115 
254 61 117 62 118 
255 61 117 62 119 
256 61 118 62 119 
257 61 120 63 121 
258 61 120 63 122 
259 61 121 63 122 
260 61 125 68 126 
261 61 125 68 127 
262 61 126 68 127 
263 61 128 69 129 
264 61 128 69 130 
265 61 129 69 130 
266 142 131 132 188 
267 140 131 132 133 
268 140 131 136 135 
269 142 131 136 184 
270 73 131 186 231 
271 73 131 186 232 
272 73 131 186 233 
273 140 132 131 136 
274 142 132 131 186 
275 73 132 188 237 
276 73 132 188 238 
277 73 132 188 239 
278 140 132 133 134 
279 142 132 133 140 
280 142 133 132 188 
281 140 133 134 135 
282 142 133 134 137 
283 73 133 140 203 
284 75 133 140 139 
285 73 133 140 202 
286 142 134 133 140 
287 142 134 135 187 
288 140 134 135 136 
289 73 134 137 200 
290 73 134 137 201 
291 75 134 137 138 
292 73 135 187 235 
293 73 135 187 236 
294 73 135 187 234 
295 142 135 134 137 
296 142 135 136 184 
297 142 136 131 186 
298 142 136 135 187 
299 73 136 184 227 
300 80 136 184 185 
301 73 136 184 226 
302 142 137 138 139 
303 142 137 138 144 
304 142 138 139 140 
305 140 138 139 141 
306 140 138 144 143 
307 140 138 144 145 
308 73 138 137 200 
309 73 138 137 201 
310 73 139 140 203 
311 73 139 140 202 
312 142 139 141 189 
313 140 139 141 142 
314 140 139 138 144 
315 142 140 139 141 
316 73 141 189 240 
317 73 141 189 241 
318 73 141 189 242 
319 142 141 142 190 
320 140 141 142 143 
321 142 142 141 189 
322 73 142 190 243 
323 73 142 190 244 
324 73 142 190 245 
325 140 142 143 148 
326 140 142 143 144 
327 140 143 148 147 
328 141 143 148 191 
329 142 143 142 190 
330 140 143 144 145 
331 140 144 143 148 
332 152 144 145 204 
333 140 144 145 146 
334 140 145 146 147 
335 140 145 146 152 
336 140 146 147 148 
337 140 146 147 149 
338 140 146 152 157 
339 140 146 152 151 
340 152 146 145 204 
341 141 147 148 191 
342 142 147 149 156 
343 140 147 149 150 
344 140 147 146 152 
345 140 148 147 149 
346 44 148 191 246 
347 80 149 156 155 
348 73 149 156 209 
349 73 149 156 210 
350 140 149 150 151 
351 142 149 150 153 
352 142 150 149 156 
353 140 150 151 160 
354 140 150 151 152 
355 73 150 153 206 
356 73 150 153 205 
357 80 150 153 154 
358 140 151 160 159 
359 141 151 160 194 
360 142 151 150 153 
361 140 151 152 157 
362 141 152 157 195 
363 140 152 157 158 
364 140 152 151 160 
365 47 153 154 193 
366 47 153 154 155 
367 68 153 154 207 
368 68 154 193 251 
369 68 154 193 252 
370 68 154 193 250 
371 47 154 155 156 
372 68 154 155 208 
373 47 154 155 192 
374 68 154 153 206 
375 68 154 153 205 
376 68 155 156 209 
377 68 155 156 210 
378 68 155 192 247 
379 68 155 192 248 
380 68 155 192 249 
381 47 155 154 193 
382 68 155 154 207 
383 68 156 155 208 
384 47 156 155 192 
385 44 157 195 254 
386 149 157 158 164 
387 140 157 158 159 
388 33 158 164 163 
389 31 158 164 196 
390 141 158 157 195 
391 140 158 159 160 
392 149 158 159 161 
393 149 159 158 164 
394 141 159 160 194 
395 31 159 161 197 
396 33 159 161 162 
397 149 160 159 161 
398 44 160 194 253 
399 149 161 162 163 
400 149 161 162 168 