LAMMPS Description

     250  atoms
     292  bonds
     569  angles
     939  dihedrals
     85  impropers

     70  atom types
     61  bond types
     174  angle types
     260  dihedral types
     5  improper types

  -50.00 50.00 xlo xhi
  -50.00 50.00 ylo yhi
  -50.00 50.00 zlo zhi

Masses

1 1.008
2 15.999
3 12.011
4 12.011
5 12.011
6 12.011
7 12.011
8 1.008
9 12.011
10 12.011
11 12.011
12 1.008
13 12.011
14 12.011
15 1.008
16 12.011
17 15.999
18 14.007
19 14.007
20 14.007
21 1.008
22 1.008
23 12.011
24 15.999
25 15.999
26 1.008
27 12.011
28 15.999
29 12.011
30 12.011
31 12.011
32 12.011
33 12.011
34 14.007
35 12.011
36 12.011
37 12.011
38 12.011
39 1.008
40 1.008
41 12.011
42 15.999
43 1.008
44 12.011
45 15.999
46 15.999
47 12.011
48 12.011
49 12.011
50 12.011
51 1.008
52 12.011
53 15.999
54 1.008
55 1.008
56 12.011
57 12.011
58 12.011
59 14.007
60 12.011
61 12.011
62 32.06
63 12.011
64 14.007
65 12.011
66 1.008
67 12.011
68 1.008
69 22.99
70 35.453

Atoms

1 1 48 0.14 0.294674 3.0632 -3.52379
2 1 4 -0.12 -0.174439 1.89306 -2.62861
3 1 5 -0.06 -1.54632 2.20697 -1.99825
4 1 5 -0.06 -1.56858 3.67607 -1.54743
5 1 48 0.14 -1.33668 4.59268 -2.77723
6 1 46 -0.4 -0.803147 3.89611 -3.91042
7 1 5 -0.06 -0.53314 3.93391 -0.431038
8 1 49 0.17 -0.437814 2.74302 0.56862
9 1 4 -0.12 -1.70826 1.91 0.550905
10 1 4 -0.12 -1.89608 1.25287 -0.82785
11 1 46 -0.4 -0.215295 3.1643 1.92634
12 1 49 0.17 0.716395 4.24946 2.03153
13 1 5 -0.06 0.0196367 5.52787 1.54743
14 1 4 -0.12 -0.869965 5.2306 0.306721
15 1 14 0.0 0.977465 6.68812 1.40859
16 1 14 0.0 2.40018 6.44263 1.14617
17 1 14 0.0 2.93938 5.15762 1.19418
18 1 5 -0.06 2.049 3.9393 1.34321
19 1 14 0.0 4.34516 4.96536 1.0762
20 1 14 0.0 5.20193 6.09883 0.94378
21 1 52 0.2 4.60791 7.3806 0.846626
22 1 14 0.0 3.24402 7.57328 0.921104
23 1 4 -0.12 2.61932 8.92972 0.712572
24 1 4 -0.12 1.41754 9.14747 1.63463
25 1 10 -0.115 0.531236 7.93973 1.66079
26 1 46 -0.4 5.38886 8.49991 0.650672
27 1 52 0.2 6.7618 8.40262 0.695472
28 1 14 0.0 7.42576 7.16852 0.784961
29 1 14 0.0 6.62111 5.96587 0.88235
30 1 9 0.0 2.81911 2.81154 1.97373
31 1 5 -0.06 4.03336 2.44595 1.15856
32 1 14 0.0 4.94673 3.6682 1.10262
33 1 14 0.0 4.70733 1.16999 1.60105
34 1 9 0.0 4.44394 0.625349 2.80999
35 1 4 -0.12 3.39293 1.15224 3.7356
36 1 10 -0.115 2.53146 2.22047 3.13629
37 1 4 -0.12 5.15634 -0.637209 3.22208
38 1 4 -0.12 6.5688 -0.671254 2.64109
39 1 9 0.0 6.54218 -0.386577 1.16004
40 1 14 0.0 5.62898 0.487764 0.673059
41 1 4 -0.12 5.51896 0.780084 -0.804885
42 1 5 -0.06 6.27849 -0.228875 -1.67003
43 1 4 -0.12 7.68099 -0.437828 -1.08802
44 1 4 -0.12 7.57534 -1.0605 0.304653
45 1 63 0.1025 7.15838 4.68144 0.948171
46 1 13 -0.115 6.32087 3.54773 1.05417
47 1 14 0.0 8.84095 7.19925 0.787873
48 1 63 0.1025 9.60889 5.97825 0.835125
49 1 62 -0.205 8.87804 4.375 0.895096
50 1 13 -0.115 10.9802 6.00657 0.825031
51 1 14 0.0 11.6956 7.23344 0.787601
52 1 14 0.0 10.976 8.46688 0.745992
53 1 14 0.0 9.55277 8.44971 0.736283
54 1 14 0.0 11.6961 9.68915 0.691631
55 1 14 0.0 13.1254 9.67981 0.697442
56 1 14 0.0 13.8286 8.42491 0.791257
57 1 13 -0.115 13.0874 7.23263 0.794814
58 1 14 0.0 15.2521 8.44521 0.892141
59 1 52 0.2 15.9277 9.64165 0.741413
60 1 14 0.0 15.2813 10.898 0.542951
61 1 14 0.0 13.8582 10.8999 0.592454
62 1 14 0.0 8.82803 9.68796 0.674874
63 1 13 -0.115 7.42341 9.61027 0.643714
64 1 14 0.0 10.9761 10.9292 0.635789
65 1 14 0.0 9.55066 10.9428 0.644103
66 1 14 0.0 13.138 12.1388 0.524827
67 1 14 0.0 11.7192 12.1456 0.56858
68 1 14 0.0 15.9967 12.1339 0.334274
69 1 14 0.0 15.2638 13.3585 0.327294
70 1 14 0.0 13.8492 13.3637 0.429977
71 1 46 -0.4 17.2972 9.59827 0.889417
72 1 49 0.17 17.9923 8.61215 0.0751747
73 1 5 -0.06 17.2578 7.24931 0.0776861
74 1 57 0.205 16.2041 7.29201 1.19311
75 1 4 -0.12 18.2447 6.08147 0.192553
76 1 4 -0.12 19.4554 6.36366 -0.702528
77 1 67 0.14 20.2984 7.49495 -0.106072
78 1 5 -0.06 19.4154 8.55963 0.627319
79 1 4 -0.12 20.0833 9.94281 0.543466
80 1 4 -0.12 21.6033 9.83637 0.657585
81 1 65 0.08 22.1653 8.99696 -0.522535
82 1 64 -0.78 21.1876 8.07133 -1.11574
83 1 52 0.2 8.90133 12.227 0.628946
84 1 52 0.2 9.62714 13.4073 0.616442
85 1 14 0.0 11.044 13.4034 0.548888
86 1 46 -0.4 9.03799 14.6494 0.652773
87 1 49 0.17 7.6414 14.6543 1.02339
88 1 49 0.17 6.95893 13.5472 0.238322
89 1 46 -0.4 7.52502 12.2851 0.642531
90 1 4 -0.12 7.06852 13.749 -1.28796
91 1 4 -0.12 7.23008 15.2319 -1.68481
92 1 4 -0.12 6.47055 16.1356 -0.7072
93 1 4 -0.12 7.07004 16.0386 0.711061
94 1 14 0.0 13.1492 14.6154 0.409849
95 1 13 -0.115 11.7571 14.6086 0.480285
96 1 14 0.0 15.9683 14.5883 0.201085
97 1 52 0.2 15.2394 15.8178 0.213036
98 1 13 -0.115 13.8769 15.8414 0.31342
99 1 14 0.0 17.3628 14.6137 0.0534787
100 1 14 0.0 18.0697 13.406 -0.018137
101 1 13 -0.115 17.3871 12.2099 0.118456
102 1 46 -0.4 15.9042 17.0284 0.109368
103 1 52 0.2 17.2766 17.0704 0.0399276
104 1 14 0.0 18.0354 15.8889 -0.0150023
105 1 5 -0.06 19.5529 13.3745 -0.281514
106 1 5 -0.06 20.2757 14.7148 -0.00543973
107 1 14 0.0 19.4291 15.9571 -0.086375
108 1 5 -0.06 21.4997 14.9015 -0.921995
109 1 4 -0.12 22.2419 13.5787 -1.06986
110 1 4 -0.12 21.3609 12.5761 -1.85642
111 1 4 -0.12 19.8577 12.8795 -1.707
112 1 14 0.0 20.0774 17.2015 -0.112942
113 1 14 0.0 19.3115 18.3959 0.00484483
114 1 14 0.0 17.8842 18.339 0.0634431
115 1 14 0.0 22.2755 16.1081 -0.467552
116 1 14 0.0 21.5117 17.2731 -0.179238
117 1 5 -0.06 6.27071 0.16797 -3.16019
118 1 3 -0.18 7.19673 1.35176 -3.46389
119 1 3 -0.18 6.62283 -1.02941 -4.04995
120 1 53 -0.683 15.6563 5.98042 1.33633
121 1 13 -0.115 17.1402 19.5594 0.169524
122 1 13 -0.115 17.7817 20.7639 0.248191
123 1 14 0.0 19.2131 20.8547 0.242713
124 1 14 0.0 19.9759 19.6489 0.114952
125 1 14 0.0 21.3945 19.7067 0.131746
126 1 14 0.0 22.0533 20.9501 0.277765
127 1 14 0.0 21.2829 22.1515 0.401101
128 1 13 -0.115 19.8809 22.0762 0.377598
129 1 13 -0.115 21.9664 23.3978 0.550265
130 1 13 -0.115 23.3348 23.4503 0.578566
131 1 14 0.0 24.1232 22.2657 0.453015
132 1 14 0.0 23.4781 21.0099 0.296675
133 1 14 0.0 24.2554 19.8205 0.154481
134 1 14 0.0 23.5893 18.5721 -0.00468583
135 1 14 0.0 22.1665 18.5108 -0.0104831
136 1 14 0.0 25.6804 19.882 0.154784
137 1 13 -0.115 26.29 21.1544 0.337965
138 1 13 -0.115 25.5353 22.2997 0.483095
139 1 13 -0.115 23.6506 16.1653 -0.418003
140 1 14 0.0 24.3438 17.3747 -0.146463
141 1 14 0.0 26.437 18.6546 0.0151754
142 1 14 0.0 25.7704 17.4245 -0.0670139
143 1 4 -0.12 26.5251 16.1138 -0.0713164
144 1 4 -0.12 27.8906 16.2359 0.593951
145 1 4 -0.12 28.6664 17.3414 -0.102325
146 1 44 0.47 27.9233 18.6706 -0.141883
147 1 45 -0.47 28.5787 19.6905 -0.361792
148 1 51 0.03 0.746831 2.70598 -4.45897
149 1 51 0.03 1.04928 3.67877 -2.99323
150 1 8 0.06 -0.253304 0.961554 -3.20915
151 1 8 0.06 0.569228 1.71408 -1.83535
152 1 8 0.06 -2.29806 2.09363 -2.79294
153 1 8 0.06 -2.5669 3.89928 -1.13502
154 1 51 0.03 -0.647509 5.41782 -2.50227
155 1 51 0.03 -2.27971 5.03261 -3.13024
156 1 8 0.06 0.443582 4.06346 -0.923929
157 1 51 0.03 0.406324 2.09062 0.270695
158 1 8 0.06 -2.55966 2.56944 0.784168
159 1 8 0.06 -1.66015 1.15039 1.34413
160 1 8 0.06 -2.93558 0.903695 -0.920564
161 1 8 0.06 -1.25762 0.356349 -0.89282
162 1 51 0.03 0.91666 4.35597 3.10753
163 1 8 0.06 -0.678083 5.80193 2.35242
164 1 8 0.06 -0.835105 6.07918 -0.392626
165 1 8 0.06 -1.91351 5.14761 0.649943
166 1 8 0.06 1.83787 3.61214 0.310059
167 1 8 0.06 3.36489 9.72483 0.839445
168 1 8 0.06 2.26926 8.98079 -0.335329
169 1 8 0.06 0.85342 10.0385 1.3162
170 1 8 0.06 1.76641 9.35966 2.66431
171 1 12 0.115 -0.511223 8.07272 1.96486
172 1 8 0.06 3.67925 2.30971 0.115108
173 1 8 0.06 3.86273 1.52666 4.66858
174 1 8 0.06 2.76632 0.303517 4.07641
175 1 12 0.115 1.63569 2.50277 3.69102
176 1 8 0.06 5.18147 -0.715603 4.32053
177 1 8 0.06 4.57969 -1.50977 2.85491
178 1 8 0.06 7.04968 -1.64405 2.83075
179 1 8 0.06 7.19295 0.0937845 3.14533
180 1 8 0.06 4.45574 0.768838 -1.10348
181 1 8 0.06 5.87616 1.80535 -1.0112
182 1 8 0.06 5.74303 -1.19303 -1.58599
183 1 8 0.06 8.18819 0.538334 -1.01314
184 1 8 0.06 8.29202 -1.07362 -1.74681
185 1 8 0.06 8.54901 -1.02112 0.826141
186 1 8 0.06 7.33463 -2.13816 0.220353
187 1 15 0.115 6.7723 2.55513 1.09654
188 1 15 0.115 11.5525 5.07651 0.854034
189 1 15 0.115 13.601 6.27693 0.765391
190 1 15 0.115 6.81892 10.5032 0.58593
191 1 51 0.03 18.024 9.01463 -0.954636
192 1 8 0.06 16.7133 7.14125 -0.873935
193 1 8 0.06 16.7391 7.55626 2.12878
194 1 8 0.06 18.5708 5.96347 1.24014
195 1 8 0.06 17.7383 5.14919 -0.0872507
196 1 8 0.06 19.1032 6.66755 -1.70486
197 1 8 0.06 20.0858 5.47577 -0.848296
198 1 68 0.06 20.9601 7.05417 0.659102
199 1 8 0.06 19.3363 8.2677 1.68816
200 1 8 0.06 19.8346 10.397 -0.431509
201 1 8 0.06 19.6657 10.6094 1.31006
202 1 8 0.06 21.8605 9.35987 1.61726
203 1 8 0.06 22.0634 10.8374 0.666265
204 1 68 0.06 23.0346 8.41014 -0.179935
205 1 68 0.06 22.5227 9.65629 -1.32767
206 1 66 0.38 20.6277 8.55909 -1.81603
207 1 51 0.03 7.57738 14.426 2.10035
208 1 51 0.03 5.90758 13.4824 0.552741
209 1 8 0.06 7.92846 13.166 -1.64892
210 1 8 0.06 6.16971 13.3209 -1.75576
211 1 8 0.06 6.86939 15.3814 -2.71305
212 1 8 0.06 8.29631 15.5021 -1.66794
213 1 8 0.06 5.41151 15.826 -0.686532
214 1 8 0.06 6.48392 17.1825 -1.04395
215 1 8 0.06 6.30995 16.2872 1.46673
216 1 8 0.06 7.89216 16.7603 0.83447
217 1 15 0.115 11.2141 15.5524 0.476321
218 1 15 0.115 13.3404 16.7908 0.309601
219 1 15 0.115 17.9563 11.2948 0.073564
220 1 8 0.06 19.99 12.6245 0.395725
221 1 8 0.06 20.6642 14.6761 1.03192
222 1 8 0.06 21.1068 15.1752 -1.922
223 1 8 0.06 22.4688 13.19 -0.0624138
224 1 8 0.06 23.2037 13.7143 -1.58479
225 1 8 0.06 21.5617 11.5572 -1.49606
226 1 8 0.06 21.6338 12.5973 -2.92274
227 1 8 0.06 19.2562 11.9824 -1.91779
228 1 8 0.06 19.5348 13.647 -2.42816
229 1 8 0.06 5.23627 0.473709 -3.40121
230 1 8 0.06 7.07529 1.67773 -4.50786
231 1 8 0.06 8.25044 1.06519 -3.323
232 1 8 0.06 6.99248 2.21472 -2.8124
233 1 8 0.06 5.93127 -1.86889 -3.8769
234 1 8 0.06 7.64505 -1.38365 -3.84253
235 1 8 0.06 6.57639 -0.758421 -5.11579
236 1 54 0.418 15.1132 5.98234 2.13952
237 1 15 0.115 16.0519 19.5077 0.194686
238 1 15 0.115 17.2074 21.6881 0.332686
239 1 15 0.115 19.2981 22.9945 0.477123
240 1 15 0.115 21.3707 24.3077 0.644564
241 1 15 0.115 23.8514 24.4045 0.700401
242 1 15 0.115 27.373 21.2121 0.349674
243 1 15 0.115 26.0341 23.2607 0.625743
244 1 15 0.115 24.2171 15.264 -0.636206
245 1 8 0.06 25.9262 15.3513 0.446042
246 1 8 0.06 26.6518 15.7586 -1.11161
247 1 8 0.06 28.4312 15.2783 0.547417
248 1 8 0.06 27.7517 16.4872 1.65821
249 1 8 0.06 28.8507 17.0584 -1.15527
250 1 8 0.06 29.6505 17.5361 0.347184

Bonds

1 22 1 2 
2 28 1 148 
3 28 1 149 
4 24 1 6 
5 22 2 3 
6 28 2 150 
7 28 2 151 
8 22 3 4 
9 22 3 10 
10 28 3 152 
11 28 4 153 
12 22 4 5 
13 22 4 7 
14 28 5 154 
15 28 5 155 
16 24 5 6 
17 28 7 156 
18 22 7 14 
19 22 7 8 
20 22 8 9 
21 24 8 11 
22 28 8 157 
23 22 9 10 
24 28 9 158 
25 28 9 159 
26 28 10 161 
27 28 10 160 
28 24 11 12 
29 28 12 162 
30 22 12 13 
31 22 12 18 
32 28 13 163 
33 22 13 14 
34 30 13 15 
35 28 14 165 
36 28 14 164 
37 55 15 25 
38 56 15 16 
39 56 16 17 
40 56 16 22 
41 30 17 18 
42 56 17 19 
43 29 18 30 
44 28 18 166 
45 56 19 20 
46 56 19 32 
47 56 20 21 
48 56 20 29 
49 42 21 26 
50 56 21 22 
51 30 22 23 
52 28 23 168 
53 28 23 167 
54 22 23 24 
55 29 24 25 
56 28 24 170 
57 28 24 169 
58 53 25 171 
59 42 26 27 
60 56 27 28 
61 56 27 63 
62 56 28 29 
63 56 28 47 
64 56 29 45 
65 54 30 36 
66 29 30 31 
67 30 31 33 
68 28 31 172 
69 30 31 32 
70 56 32 46 
71 55 33 34 
72 56 33 40 
73 29 34 35 
74 29 34 37 
75 29 35 36 
76 28 35 173 
77 28 35 174 
78 53 36 175 
79 28 37 177 
80 22 37 38 
81 28 37 176 
82 28 38 178 
83 28 38 179 
84 29 38 39 
85 29 39 44 
86 55 39 40 
87 30 40 41 
88 22 41 42 
89 28 41 180 
90 28 41 181 
91 22 42 43 
92 22 42 117 
93 28 42 182 
94 22 43 44 
95 28 43 183 
96 28 43 184 
97 28 44 185 
98 28 44 186 
99 36 45 49 
100 56 45 46 
101 57 46 187 
102 56 47 53 
103 56 47 48 
104 36 48 49 
105 56 48 50 
106 56 50 51 
107 57 50 188 
108 56 51 57 
109 56 51 52 
110 56 52 53 
111 56 52 54 
112 56 53 62 
113 56 54 55 
114 56 54 64 
115 56 55 61 
116 56 55 56 
117 56 56 57 
118 56 56 58 
119 57 57 189 
120 30 58 74 
121 56 58 59 
122 56 59 60 
123 42 59 71 
124 56 60 68 
125 56 60 61 
126 56 61 66 
127 56 62 65 
128 56 62 63 
129 57 63 190 
130 56 64 65 
131 56 64 67 
132 56 65 83 
133 56 66 67 
134 56 66 70 
135 56 67 85 
136 56 68 101 
137 56 68 69 
138 56 69 70 
139 56 69 96 
140 56 70 94 
141 24 71 72 
142 22 72 73 
143 28 72 191 
144 22 72 78 
145 22 73 74 
146 22 73 75 
147 28 73 192 
148 28 74 193 
149 15 74 120 
150 28 75 194 
151 28 75 195 
152 22 75 76 
153 28 76 197 
154 28 76 196 
155 22 76 77 
156 28 77 198 
157 27 77 82 
158 22 77 78 
159 28 78 199 
160 22 78 79 
161 28 79 201 
162 28 79 200 
163 22 79 80 
164 22 80 81 
165 28 80 202 
166 28 80 203 
167 27 81 82 
168 28 81 204 
169 28 81 205 
170 49 82 206 
171 42 83 89 
172 56 83 84 
173 56 84 85 
174 42 84 86 
175 56 85 95 
176 24 86 87 
177 22 87 93 
178 28 87 207 
179 22 87 88 
180 24 88 89 
181 22 88 90 
182 28 88 208 
183 28 90 209 
184 28 90 210 
185 22 90 91 
186 28 91 211 
187 22 91 92 
188 28 91 212 
189 28 92 213 
190 22 92 93 
191 28 92 214 
192 28 93 215 
193 28 93 216 
194 56 94 98 
195 56 94 95 
196 57 95 217 
197 56 96 97 
198 56 96 99 
199 56 97 98 
200 42 97 102 
201 57 98 218 
202 56 99 100 
203 56 99 104 
204 30 100 105 
205 56 100 101 
206 57 101 219 
207 42 102 103 
208 56 103 114 
209 56 103 104 
210 56 104 107 
211 22 105 106 
212 22 105 111 
213 28 105 220 
214 30 106 107 
215 22 106 108 
216 28 106 221 
217 56 107 112 
218 30 108 115 
219 22 108 109 
220 28 108 222 
221 22 109 110 
222 28 109 223 
223 28 109 224 
224 28 110 225 
225 28 110 226 
226 22 110 111 
227 28 111 227 
228 28 111 228 
229 56 112 113 
230 56 112 116 
231 56 113 114 
232 56 113 124 
233 56 114 121 
234 56 115 116 
235 56 115 139 
236 56 116 135 
237 28 117 229 
238 22 117 118 
239 22 117 119 
240 28 118 230 
241 28 118 231 
242 28 118 232 
243 28 119 233 
244 28 119 234 
245 28 119 235 
246 14 120 236 
247 57 121 237 
248 56 121 122 
249 56 122 123 
250 57 122 238 
251 56 123 124 
252 56 123 128 
253 56 124 125 
254 56 125 126 
255 56 125 135 
256 56 126 132 
257 56 126 127 
258 56 127 129 
259 56 127 128 
260 57 128 239 
261 56 129 130 
262 57 129 240 
263 57 130 241 
264 56 130 131 
265 56 131 138 
266 56 131 132 
267 56 132 133 
268 56 133 134 
269 56 133 136 
270 56 134 140 
271 56 134 135 
272 56 136 137 
273 56 136 141 
274 57 137 242 
275 56 137 138 
276 57 138 243 
277 57 139 244 
278 56 139 140 
279 56 140 142 
280 11 141 146 
281 56 141 142 
282 30 142 143 
283 28 143 246 
284 28 143 245 
285 22 143 144 
286 22 144 145 
287 28 144 248 
288 28 144 247 
289 28 145 249 
290 4 145 146 
291 28 145 250 
292 2 146 147 

Angles

1 47 1 2 3 
2 68 1 2 150 
3 68 1 2 151 
4 92 1 6 5 
5 68 2 1 148 
6 68 2 1 149 
7 51 2 1 6 
8 47 2 3 4 
9 47 2 3 10 
10 68 2 3 152 
11 68 3 2 150 
12 68 3 2 151 
13 68 3 4 153 
14 47 3 4 5 
15 47 3 4 7 
16 68 3 10 161 
17 47 3 10 9 
18 68 3 10 160 
19 47 4 3 10 
20 68 4 3 152 
21 68 4 5 154 
22 68 4 5 155 
23 51 4 5 6 
24 68 4 7 156 
25 47 4 7 14 
26 47 4 7 8 
27 68 5 4 153 
28 47 5 4 7 
29 65 6 1 148 
30 65 6 1 149 
31 65 6 5 154 
32 65 6 5 155 
33 68 7 4 153 
34 68 7 14 165 
35 68 7 14 164 
36 47 7 14 13 
37 47 7 8 9 
38 51 7 8 11 
39 68 7 8 157 
40 47 8 9 10 
41 68 8 9 158 
42 68 8 9 159 
43 92 8 11 12 
44 68 8 7 156 
45 47 8 7 14 
46 68 9 10 161 
47 68 9 10 160 
48 51 9 8 11 
49 68 9 8 157 
50 68 10 9 158 
51 68 10 9 159 
52 68 10 3 152 
53 65 11 12 162 
54 51 11 12 13 
55 51 11 12 18 
56 65 11 8 157 
57 68 12 13 163 
58 47 12 13 14 
59 80 12 13 15 
60 80 12 18 17 
61 71 12 18 30 
62 68 12 18 166 
63 68 13 12 162 
64 47 13 12 18 
65 68 13 14 165 
66 68 13 14 164 
67 143 13 15 16 
68 68 14 13 163 
69 80 14 13 15 
70 68 14 7 156 
71 137 15 25 171 
72 139 15 25 24 
73 73 15 13 163 
74 141 15 16 17 
75 141 15 16 22 
76 143 16 17 18 
77 141 16 17 19 
78 141 16 22 21 
79 143 16 22 23 
80 147 16 15 25 
81 74 17 18 30 
82 73 17 18 166 
83 141 17 19 20 
84 141 17 19 32 
85 141 17 16 22 
86 143 18 17 19 
87 68 18 12 162 
88 133 18 30 36 
89 124 18 30 31 
90 141 19 20 21 
91 141 19 20 29 
92 141 19 32 46 
93 143 19 32 31 
94 141 20 19 32 
95 144 20 21 26 
96 141 20 21 22 
97 141 20 29 28 
98 141 20 29 45 
99 97 21 26 27 
100 141 21 20 29 
101 143 21 22 23 
102 144 22 21 26 
103 73 22 23 168 
104 73 22 23 167 
105 80 22 23 24 
106 71 23 24 25 
107 68 23 24 170 
108 68 23 24 169 
109 126 24 25 171 
110 68 24 23 168 
111 68 24 23 167 
112 70 25 24 170 
113 70 25 24 169 
114 144 26 27 28 
115 144 26 27 63 
116 141 27 28 29 
117 141 27 28 47 
118 141 27 63 62 
119 153 27 63 190 
120 141 28 27 63 
121 141 28 29 45 
122 141 28 47 53 
123 141 28 47 48 
124 141 29 28 47 
125 149 29 45 49 
126 141 29 45 46 
127 70 30 18 166 
128 133 30 36 35 
129 130 30 36 175 
130 74 30 31 33 
131 70 30 31 172 
132 74 30 31 32 
133 143 31 33 40 
134 133 31 30 36 
135 143 31 32 46 
136 153 32 46 187 
137 141 32 46 45 
138 75 32 31 33 
139 73 32 31 172 
140 139 33 34 35 
141 139 33 34 37 
142 73 33 31 172 
143 143 33 40 41 
144 147 33 40 39 
145 147 34 33 40 
146 72 34 35 36 
147 70 34 35 173 
148 70 34 35 174 
149 70 34 37 177 
150 71 34 37 38 
151 70 34 37 176 
152 124 35 34 37 
153 126 35 36 175 
154 70 36 35 173 
155 70 36 35 174 
156 68 37 38 178 
157 68 37 38 179 
158 71 37 38 39 
159 68 38 37 177 
160 68 38 37 176 
161 124 38 39 44 
162 139 38 39 40 
163 70 39 44 185 
164 70 39 44 186 
165 71 39 44 43 
166 70 39 38 178 
167 70 39 38 179 
168 80 40 41 42 
169 73 40 41 180 
170 73 40 41 181 
171 139 40 39 44 
172 47 41 42 43 
173 47 41 42 117 
174 68 41 42 182 
175 68 42 41 180 
176 68 42 41 181 
177 47 42 43 44 
178 68 42 43 183 
179 68 42 43 184 
180 68 42 117 229 
181 47 42 117 118 
182 47 42 117 119 
183 47 43 42 117 
184 68 43 42 182 
185 68 43 44 185 
186 68 43 44 186 
187 68 44 43 183 
188 68 44 43 184 
189 153 45 46 187 
190 149 46 45 49 
191 141 47 53 52 
192 141 47 53 62 
193 149 47 48 49 
194 141 47 48 50 
195 141 48 50 51 
196 153 48 50 188 
197 141 48 47 53 
198 149 49 48 50 
199 141 50 51 57 
200 141 50 51 52 
201 153 51 57 189 
202 141 51 57 56 
203 153 51 50 188 
204 141 51 52 53 
205 141 51 52 54 
206 141 52 51 57 
207 141 52 53 62 
208 141 52 54 55 
209 141 52 54 64 
210 141 53 52 54 
211 141 53 62 65 
212 141 53 62 63 
213 141 54 55 61 
214 141 54 55 56 
215 141 54 64 65 
216 141 54 64 67 
217 141 55 61 66 
218 141 55 61 60 
219 141 55 54 64 
220 141 55 56 57 
221 141 55 56 58 
222 153 56 57 189 
223 143 56 58 74 
224 141 56 58 59 
225 141 56 55 61 
226 141 57 56 58 
227 80 58 74 73 
228 73 58 74 193 
229 76 58 74 120 
230 141 58 59 60 
231 144 58 59 71 
232 143 59 58 74 
233 141 59 60 68 
234 141 59 60 61 
235 95 59 71 72 
236 144 60 59 71 
237 141 60 68 101 
238 141 60 68 69 
239 141 60 61 66 
240 141 61 66 67 
241 141 61 66 70 
242 141 61 60 68 
243 141 62 65 83 
244 141 62 65 64 
245 153 62 63 190 
246 141 63 62 65 
247 141 64 65 83 
248 141 64 67 66 
249 141 64 67 85 
250 144 65 83 89 
251 141 65 83 84 
252 141 65 64 67 
253 141 66 67 85 
254 141 66 70 69 
255 141 66 70 94 
256 141 67 66 70 
257 141 67 85 84 
258 141 67 85 95 
259 153 68 101 219 
260 141 68 101 100 
261 141 68 69 70 
262 141 68 69 96 
263 141 69 68 101 
264 141 69 70 94 
265 141 69 96 97 
266 141 69 96 99 
267 141 70 69 96 
268 141 70 94 98 
269 141 70 94 95 
270 51 71 72 73 
271 65 71 72 191 
272 51 71 72 78 
273 47 72 73 74 
274 47 72 73 75 
275 68 72 73 192 
276 47 72 78 77 
277 68 72 78 199 
278 47 72 78 79 
279 68 73 74 193 
280 46 73 74 120 
281 68 73 75 194 
282 68 73 75 195 
283 47 73 75 76 
284 68 73 72 191 
285 47 73 72 78 
286 47 74 73 75 
287 68 74 73 192 
288 41 74 120 236 
289 68 75 73 192 
290 68 75 76 197 
291 68 75 76 196 
292 47 75 76 77 
293 68 76 75 194 
294 68 76 75 195 
295 68 76 77 198 
296 59 76 77 82 
297 47 76 77 78 
298 115 77 82 81 
299 117 77 82 206 
300 68 77 76 197 
301 68 77 76 196 
302 68 77 78 199 
303 47 77 78 79 
304 68 78 77 198 
305 59 78 77 82 
306 68 78 79 201 
307 68 78 79 200 
308 47 78 79 80 
309 68 78 72 191 
310 68 79 78 199 
311 47 79 80 81 
312 68 79 80 202 
313 68 79 80 203 
314 59 80 81 82 
315 68 80 81 204 
316 68 80 81 205 
317 68 80 79 201 
318 68 80 79 200 
319 117 81 82 206 
320 68 81 80 202 
321 68 81 80 203 
322 67 82 81 204 
323 67 82 81 205 
324 67 82 77 198 
325 95 83 89 88 
326 141 83 84 85 
327 144 83 84 86 
328 144 84 83 89 
329 141 84 85 95 
330 95 84 86 87 
331 144 85 84 86 
332 153 85 95 217 
333 141 85 95 94 
334 51 86 87 93 
335 65 86 87 207 
336 51 86 87 88 
337 47 87 93 92 
338 68 87 93 215 
339 68 87 93 216 
340 51 87 88 89 
341 47 87 88 90 
342 68 87 88 208 
343 68 88 90 209 
344 68 88 90 210 
345 47 88 90 91 
346 47 88 87 93 
347 68 88 87 207 
348 51 89 88 90 
349 65 89 88 208 
350 68 90 91 211 
351 47 90 91 92 
352 68 90 91 212 
353 68 90 88 208 
354 68 91 90 209 
355 68 91 90 210 
356 68 91 92 213 
357 47 91 92 93 
358 68 91 92 214 
359 68 92 91 211 
360 68 92 91 212 
361 68 92 93 215 
362 68 92 93 216 
363 68 93 92 213 
364 68 93 92 214 
365 68 93 87 207 
366 141 94 98 97 
367 153 94 98 218 
368 153 94 95 217 
369 141 95 94 98 
370 141 96 97 98 
371 144 96 97 102 
372 141 96 99 100 
373 141 96 99 104 
374 153 97 98 218 
375 97 97 102 103 
376 141 97 96 99 
377 144 98 97 102 
378 143 99 100 105 
379 141 99 100 101 
380 141 99 104 103 
381 141 99 104 107 
382 80 100 105 106 
383 80 100 105 111 
384 73 100 105 220 
385 141 100 99 104 
386 153 100 101 219 
387 143 101 100 105 
388 144 102 103 114 
389 144 102 103 104 
390 141 103 114 113 
391 141 103 114 121 
392 141 103 104 107 
393 141 104 103 114 
394 143 104 107 106 
395 141 104 107 112 
396 80 105 106 107 
397 47 105 106 108 
398 68 105 106 221 
399 68 105 111 227 
400 68 105 111 228 
401 47 105 111 110 
402 47 106 105 111 
403 68 106 105 220 
404 143 106 107 112 
405 80 106 108 115 
406 47 106 108 109 
407 68 106 108 222 
408 80 107 106 108 
409 73 107 106 221 
410 141 107 112 113 
411 141 107 112 116 
412 68 108 106 221 
413 143 108 115 116 
414 143 108 115 139 
415 47 108 109 110 
416 68 108 109 223 
417 68 108 109 224 
418 80 109 108 115 
419 68 109 108 222 
420 68 109 110 225 
421 68 109 110 226 
422 47 109 110 111 
423 68 110 109 223 
424 68 110 109 224 
425 68 110 111 227 
426 68 110 111 228 
427 68 111 105 220 
428 68 111 110 225 
429 68 111 110 226 
430 141 112 113 114 
431 141 112 113 124 
432 141 112 116 115 
433 141 112 116 135 
434 141 113 114 121 
435 141 113 124 123 
436 141 113 124 125 
437 141 113 112 116 
438 141 114 113 124 
439 153 114 121 237 
440 141 114 121 122 
441 141 115 116 135 
442 153 115 139 244 
443 141 115 139 140 
444 73 115 108 222 
445 141 116 115 139 
446 141 116 135 125 
447 141 116 135 134 
448 68 117 42 182 
449 68 117 118 230 
450 68 117 118 231 
451 68 117 118 232 
452 68 117 119 233 
453 68 117 119 234 
454 68 117 119 235 
455 68 118 117 229 
456 47 118 117 119 
457 68 119 117 229 
458 63 120 74 193 
459 141 121 122 123 
460 153 121 122 238 
461 153 122 121 237 
462 141 122 123 124 
463 141 122 123 128 
464 153 123 122 238 
465 141 123 124 125 
466 141 123 128 127 
467 153 123 128 239 
468 141 124 123 128 
469 141 124 125 126 
470 141 124 125 135 
471 141 125 126 132 
472 141 125 126 127 
473 141 125 135 134 
474 141 126 132 131 
475 141 126 132 133 
476 141 126 125 135 
477 141 126 127 129 
478 141 126 127 128 
479 141 127 129 130 
480 153 127 129 240 
481 141 127 126 132 
482 153 127 128 239 
483 141 128 127 129 
484 153 129 130 241 
485 141 129 130 131 
486 153 130 129 240 
487 141 130 131 138 
488 141 130 131 132 
489 153 131 130 241 
490 141 131 138 137 
491 153 131 138 243 
492 141 131 132 133 
493 141 132 131 138 
494 141 132 133 134 
495 141 132 133 136 
496 141 133 134 140 
497 141 133 134 135 
498 141 133 136 137 
499 141 133 136 141 
500 141 134 140 139 
501 141 134 140 142 
502 141 134 133 136 
503 141 135 134 140 
504 153 136 137 242 
505 141 136 137 138 
506 150 136 141 146 
507 141 136 141 142 
508 153 137 138 243 
509 141 137 136 141 
510 153 138 137 242 
511 141 139 140 142 
512 153 140 139 244 
513 141 140 142 141 
514 143 140 142 143 
515 29 141 146 145 
516 31 141 146 147 
517 143 141 142 143 
518 150 142 141 146 
519 73 142 143 246 
520 73 142 143 245 
521 80 142 143 144 
522 47 143 144 145 
523 68 143 144 248 
524 68 143 144 247 
525 68 144 145 249 
526 48 144 145 146 
527 68 144 145 250 
528 68 144 143 246 
529 68 144 143 245 
530 7 145 146 147 
531 68 145 144 248 
532 68 145 144 247 
533 62 146 145 249 
534 62 146 145 250 
535 61 148 1 149 
536 61 150 2 151 
537 61 154 5 155 
538 61 158 9 159 
539 61 160 10 161 
540 61 164 14 165 
541 61 167 23 168 
542 61 169 24 170 
543 61 173 35 174 
544 61 176 37 177 
545 61 178 38 179 
546 61 180 41 181 
547 61 183 43 184 
548 61 185 44 186 
549 61 194 75 195 
550 61 196 76 197 
551 61 200 79 201 
552 61 202 80 203 
553 61 204 81 205 
554 61 209 90 210 
555 61 211 91 212 
556 61 213 92 214 
557 61 215 93 216 
558 61 223 109 224 
559 61 225 110 226 
560 61 227 111 228 
561 61 230 118 231 
562 61 230 118 232 
563 61 231 118 232 
564 61 233 119 234 
565 61 233 119 235 
566 61 234 119 235 
567 61 245 143 246 
568 61 247 144 248 
569 61 249 145 250 

Dihedrals

1 116 1 2 3 4 
2 116 1 2 3 10 
3 121 1 2 3 152 
4 148 1 6 5 154 
5 148 1 6 5 155 
6 147 1 6 5 4 
7 147 2 1 6 5 
8 121 2 3 4 153 
9 116 2 3 4 5 
10 116 2 3 4 7 
11 121 2 3 10 161 
12 116 2 3 10 9 
13 121 2 3 10 160 
14 121 3 2 1 148 
15 121 3 2 1 149 
16 259 3 2 1 6 
17 121 3 4 5 154 
18 121 3 4 5 155 
19 259 3 4 5 6 
20 121 3 4 7 156 
21 116 3 4 7 14 
22 116 3 4 7 8 
23 121 3 10 9 158 
24 121 3 10 9 159 
25 116 3 10 9 8 
26 121 4 3 2 150 
27 121 4 3 2 151 
28 121 4 3 10 161 
29 116 4 3 10 9 
30 121 4 3 10 160 
31 121 4 7 14 165 
32 121 4 7 14 164 
33 116 4 7 14 13 
34 116 4 7 8 9 
35 259 4 7 8 11 
36 121 4 7 8 157 
37 116 5 4 3 10 
38 121 5 4 3 152 
39 121 5 4 7 156 
40 116 5 4 7 14 
41 116 5 4 7 8 
42 148 5 6 1 148 
43 148 5 6 1 149 
44 125 6 1 2 150 
45 125 6 1 2 151 
46 125 6 5 4 153 
47 259 6 5 4 7 
48 116 7 4 3 10 
49 121 7 4 3 152 
50 121 7 4 5 154 
51 121 7 4 5 155 
52 121 7 14 13 163 
53 116 7 14 13 12 
54 101 7 14 13 15 
55 116 7 8 9 10 
56 121 7 8 9 158 
57 121 7 8 9 159 
58 147 7 8 11 12 
59 121 8 9 10 161 
60 121 8 9 10 160 
61 148 8 11 12 162 
62 147 8 11 12 13 
63 147 8 11 12 18 
64 121 8 7 4 153 
65 121 8 7 14 165 
66 121 8 7 14 164 
67 116 8 7 14 13 
68 121 9 10 3 152 
69 147 9 8 11 12 
70 121 9 8 7 156 
71 116 9 8 7 14 
72 259 10 9 8 11 
73 121 10 9 8 157 
74 121 10 3 2 150 
75 121 10 3 2 151 
76 121 10 3 4 153 
77 125 11 12 13 163 
78 259 11 12 13 14 
79 125 11 12 18 166 
80 125 11 8 9 158 
81 125 11 8 9 159 
82 125 11 8 7 156 
83 259 11 8 7 14 
84 148 12 11 8 157 
85 121 12 13 14 165 
86 121 12 13 14 164 
87 179 12 13 15 16 
88 179 12 18 17 19 
89 179 12 18 17 16 
90 172 12 18 30 36 
91 171 12 18 30 31 
92 101 13 12 18 17 
93 260 13 12 18 30 
94 121 13 12 18 166 
95 121 13 14 7 156 
96 234 13 15 16 17 
97 234 13 15 16 22 
98 121 14 13 12 162 
99 116 14 13 12 18 
100 179 14 13 15 16 
101 121 14 7 4 153 
102 121 14 7 8 157 
103 136 15 13 12 162 
104 101 15 13 12 18 
105 136 15 13 14 165 
106 136 15 13 14 164 
107 234 15 16 17 18 
108 240 15 16 17 19 
109 240 15 16 22 21 
110 234 15 16 22 23 
111 178 16 17 18 30 
112 182 16 17 18 166 
113 240 16 17 19 20 
114 240 16 17 19 32 
115 231 16 22 21 26 
116 240 16 22 21 20 
117 182 16 22 23 168 
118 182 16 22 23 167 
119 179 16 22 23 24 
120 226 16 15 25 171 
121 225 16 15 25 24 
122 182 16 15 13 163 
123 136 17 18 12 162 
124 170 17 18 30 36 
125 168 17 18 30 31 
126 240 17 19 20 21 
127 240 17 19 20 29 
128 240 17 19 32 46 
129 234 17 19 32 31 
130 240 17 16 22 21 
131 234 17 16 22 23 
132 231 17 16 15 25 
133 234 18 17 19 20 
134 234 18 17 19 32 
135 234 18 17 16 22 
136 121 18 12 13 163 
137 217 18 30 36 35 
138 219 18 30 36 175 
139 168 18 30 31 33 
140 173 18 30 31 172 
141 168 18 30 31 32 
142 178 19 17 18 30 
143 182 19 17 18 166 
144 240 19 17 16 22 
145 231 19 20 21 26 
146 240 19 20 21 22 
147 240 19 20 29 28 
148 240 19 20 29 45 
149 241 19 32 46 187 
150 240 19 32 46 45 
151 178 19 32 31 33 
152 182 19 32 31 172 
153 178 19 32 31 30 
154 240 20 19 32 46 
155 234 20 19 32 31 
156 234 20 21 22 23 
157 240 20 29 28 27 
158 240 20 29 28 47 
159 231 20 29 45 49 
160 240 20 29 45 46 
161 240 21 20 19 32 
162 240 21 20 29 28 
163 240 21 20 29 45 
164 182 21 22 23 168 
165 182 21 22 23 167 
166 179 21 22 23 24 
167 240 22 21 20 29 
168 136 22 23 24 170 
169 136 22 23 24 169 
170 231 22 16 15 25 
171 230 23 22 21 26 
172 169 23 24 25 171 
173 135 25 24 23 168 
174 135 25 24 23 167 
175 231 26 27 28 29 
176 231 26 27 28 47 
177 231 26 27 63 62 
178 232 26 27 63 190 
179 231 26 21 20 29 
180 240 27 28 29 45 
181 240 27 28 47 53 
182 240 27 28 47 48 
183 240 27 63 62 65 
184 240 27 63 62 53 
185 240 28 27 63 62 
186 241 28 27 63 190 
187 231 28 29 45 49 
188 240 28 29 45 46 
189 240 28 47 53 52 
190 240 28 47 53 62 
191 231 28 47 48 49 
192 240 28 47 48 50 
193 240 29 28 27 63 
194 240 29 28 47 53 
195 240 29 28 47 48 
196 240 29 20 19 32 
197 241 29 45 46 187 
198 240 29 45 46 32 
199 135 30 18 12 162 
200 170 30 36 35 34 
201 175 30 36 35 173 
202 175 30 36 35 174 
203 178 30 31 33 40 
204 178 30 31 32 46 
205 233 31 33 40 41 
206 230 31 33 40 39 
207 173 31 30 18 166 
208 217 31 30 36 35 
209 219 31 30 36 175 
210 235 31 32 46 187 
211 234 31 32 46 45 
212 231 32 46 45 49 
213 178 32 31 33 40 
214 170 32 31 30 36 
215 170 33 31 30 36 
216 178 33 31 32 46 
217 179 33 40 41 42 
218 182 33 40 41 180 
219 182 33 40 41 181 
220 225 33 40 39 44 
221 225 33 40 39 38 
222 230 34 33 40 41 
223 229 34 33 40 39 
224 177 34 35 36 175 
225 135 34 37 38 178 
226 135 34 37 38 179 
227 225 35 34 33 40 
228 173 35 34 37 177 
229 171 35 34 37 38 
230 173 35 34 37 176 
231 176 36 35 34 37 
232 175 36 30 18 166 
233 175 36 30 31 172 
234 225 37 34 33 40 
235 173 37 34 35 173 
236 173 37 34 35 174 
237 171 37 38 39 44 
238 173 38 39 44 185 