LAMMPS data file via write_data, version 16 Mar 2018, timestep = 50000

18 atoms
39 atom types
19 bonds
193 bond types
30 angles
738 angle types
44 dihedrals
719 dihedral types
10 impropers
5 improper types

-5.0000000000000000e+01 5.0000000000000000e+01 xlo xhi
-5.0000000000000000e+01 5.0000000000000000e+01 ylo yhi
-5.0000000000000000e+01 5.0000000000000000e+01 zlo zhi

Masses

1 1.008
2 15.999
3 12.011
4 12.011
5 12.011
6 12.011
7 12.011
8 1.008
9 12.011
10 12.011
11 12.011
12 1.008
13 12.011
14 12.011
15 1.008
16 12.011
17 15.999
18 14.007
19 14.007
20 14.007
21 1.008
22 1.008
23 12.011
24 15.999
25 15.999
26 1.008
27 12.011
28 15.999
29 12.011
30 12.011
31 12.011
32 12.011
33 12.011
34 14.007
35 12.011
36 12.011
37 12.011
38 12.011
39 1.008

Pair Coeffs # lj/cut/coul/long

1 0 0
2 0.1554 3.16557
3 0.066 3.5
4 0.066 3.5
5 0.066 3.5
6 0.066 3.5
7 0.066 3.5
8 0.03 2.5
9 0.076 3.55
10 0.076 3.55
11 0.076 3.55
12 0.03 2.42
13 0.07 3.55
14 0.07 3.55
15 0.03 2.42
16 0.105 3.75
17 0.21 2.96
18 0.17 3.25
19 0.17 3.25
20 0.17 3.25
21 0 0
22 0 0
23 0.105 3.75
24 0.21 2.96
25 0.17 3
26 0 0
27 0.105 3.75
28 0.21 2.96
29 0.066 3.5
30 0.066 3.5
31 0.066 3.5
32 0.066 3.5
33 0.076 3.55
34 0.17 3.25
35 0.066 3.5
36 0.066 3.5
37 0.066 3.5
38 0.066 3.5
39 0.03 2.5

Bond Coeffs # harmonic

1 420 1.357
2 367 1.36
3 420 1.34
4 420 1.354
5 317 1.522
6 386 1.425
7 260 1.526
8 337 1.449
9 317 1.51
10 367 1.471
11 350 1.51
12 570 1.229
13 450 1.364
14 317 1.522
15 317 1.522
16 469 1.4
17 317 1.522
18 400 1.444
19 214 1.327
20 300 1.79
21 490 1.335
22 317 1.522
23 340 1.09
24 410 1.444
25 400 1.49
26 385 1.46
27 656 1.25
28 457 1.358
29 418 1.388
30 447 1.419
31 300 1.98
32 400 1.49
33 385 1.46
34 424 1.383
35 490 1.335
36 553 0.3
37 525 1.48
38 570 1.229
39 700 1.171
40 386 1.425
41 553 0.945
42 386 1.425
43 320 1.41
44 250 1.47
45 400 1.38
46 340 0.3
47 320 1.45
48 450 1.37
49 450 1.364
50 320 1.38
51 230 1.61
52 450 1.67
53 94 1.8
54 374 1.64
55 260 1.526
56 337 1.449
57 317 1.51
58 367 1.471
59 553 0.945
60 340 0.1
61 337 1.449
62 317 1.5
63 469 1.4
64 268 1.529
65 317 1.5
66 222 1.81
67 222 1.81
68 390 1.43
69 390 1.47
70 320 1.41
71 245 1.781
72 340 1.79
73 337 1.449
74 340 0.3
75 382 1.448
76 340 1.09
77 317 1.51
78 317 1.51
79 317 1.51
80 268 1.529
81 367 1.471
82 337 1.463
83 337 1.449
84 337 1.475
85 317 1.51
86 212 1.843
87 245 1.945
88 200 2.19
89 340 1.77
90 317 1.495
91 317 1.504
92 317 1.504
93 317 1.504
94 317 1.495
95 337 1.449
96 280 1.51
97 532.8 1.46
98 382 1.448
99 375 1.49
100 212 1.82
101 337 1.475
102 337 1.449
103 187 1.86
104 317 1.51
105 250 1.74
106 250 1.73
107 250 1.76
108 250 1.76
109 400 1.41
110 420 1.08
111 400 1.426
112 400 1.451
113 320 1.45
114 450 1.37
115 450 1.364
116 300 1.725
117 300 1.725
118 367 0.3
119 434 1.01
120 427 1.381
121 427 1.381
122 434 1.67
123 427 1.381
124 427 1.381
125 337 1.449
126 500 1.27
127 40 2.05
128 340 0.1
129 340 0.3
130 340 0.3
131 367 0.3
132 340 0.3
133 340 0.3
134 600 1
135 434 1.01
136 481 1.34
137 434 1.01
138 434 1.01
139 434 1.01
140 434 1.01
141 434 1.01
142 434 1.01
143 166 1.48
144 340 1.08
145 340 1.08
146 340 1.09
147 340 1.08
148 340 1.088
149 532.8 1.084
150 166 1.48
151 340 1.08
152 549 1.34
153 427 1.433
154 549 1.34
155 448 1.365
156 367 1.08
157 300 1.9
158 250 2.08
159 385 1.46
160 317 1.51
161 448 1.365
162 700 1.305
163 469 1.4
164 367 1.08
165 427 1.433
166 400 1.45
167 481 1.34
168 483 1.339
169 427 1.381
170 469 1.404
171 414 1.391
172 220 1.78
173 300 1.87
174 250 2.08
175 340 1.77
176 469 1.4
177 546 1.367
178 469 1.4
179 469 1.421
180 317 1.49
181 382 1.385
182 400 1.46
183 427 1.433
184 367 1.08
185 340 1.08
186 367 1.08
187 367 1.08
188 367 1.08
189 367 1.08
190 367 1.08
191 367 1.08
192 525 1.48
193 434 1.01

Angle Coeffs # harmonic

1 63 112.4
2 80 109.5
3 80 109.5
4 63 112.4
5 80 109.5
6 63 112.4
7 80 110.3
8 80 111.2
9 56.2 109.47
10 80 111.2
11 63 112.4
12 63 114
13 80 111.2
14 80 120.4
15 80 121
16 80 121.4
17 80 126
18 80 121
19 80 120.4
20 70 115
21 80 120.4
22 70 120
23 85 120
24 70 108
25 70 116
26 80 111
27 80 117.2
28 80 120.4
29 81 111.4
30 81 111.4
31 83 123.4
32 75 109
33 75 119
34 70 114.2
35 70 116.6
36 70 116.6
37 70 116.6
38 70 116.6
39 70 116.6
40 80 122.9
41 81 111.4
42 70 116
43 80 120.4
44 35 115
45 35 115
46 35 123
47 40 114
48 40 115
49 40 115
50 70 115.5
51 80 125.3
52 35 115
53 70 115.5
54 70 116
55 70 120
56 80 120.4
57 81 111.4
58 85 120
59 70 116
60 80 116
61 80 124
62 65 117
63 70 117
64 70 117
65 70 117
66 70 117
67 80 126
68 80 126
69 35 122
70 80 122.5
71 70 114.1
72 70 118.6
73 70 118.6
74 80 120.6
75 70 111.3
76 70 111.3
77 80 128.8
78 75 109
79 75 119
80 70 116
81 80 120.4
82 80 128.2
83 70 115.4
84 70 118.6
85 80 120.9
86 70 116.6
87 80 122.9
88 10 117
89 35 113
90 35 113
91 55 108.5
92 55 108.5
93 55 108.5
94 55 108.5
95 49 105.4
96 5 109.47
97 10 109.47
98 10 109.47
99 35 109
100 10 109.47
101 35 113
102 55 108.5
103 55 108.5
104 100 120.5
105 74 110
106 100 126
107 10 109.47
108 33 109.47
109 63 111.1
110 80 109.5
111 63 111.1
112 80 109.5
113 63 111.1
114 80 109.5
115 63 110.1
116 80 109.5
117 80 109.7
118 80 109.7
119 56.2 109.47
120 80 109.7
121 63 112.4
122 80 109.5
123 70 118
124 70 118
125 70 124
126 70 124
127 70 124
128 70 124
129 85 120
130 85 120
131 77 109.1
132 40 109.5
133 50 109.5
134 63 111.1
135 63 111.1
136 40 109.5
137 40 109.5
138 63 109.5
139 50 109.5
140 50 109.5
141 58.35 112.7
142 63 111.1
143 50 108.6
144 50 114.7
145 58.35 112.7
146 50 109.5
147 50 109.5
148 69 109.8
149 69 109.8
150 78 111.7
151 50 108.6
152 50 109.5
153 63 110.1
154 80 109.7
155 80 109.7
156 50 114.7
157 56.2 109.47
158 56.2 109.47
159 56.2 109.47
160 56.2 109.47
161 80 111.2
162 33 107.8
163 35 108.5
164 35 108.5
165 35 109.5
166 35 109.5
167 35 109.5
168 35 109.5
169 35 109.5
170 35 109.5
171 35 109.5
172 35 109.5
173 35 109.5
174 37.5 110.7
175 40 107
176 51 107.6
177 35 109.5
178 50 109.5
179 63 111.1
180 63 112.4
181 35 109.5
182 40 109.5
183 40 109.5
184 50 109.5
185 50 109.5
186 50 109.5
187 50 114.7
188 63 112
189 63 114
190 63 114
191 80 111.2
192 35 109.5
193 37.5 110.7
194 50 109.5
195 58.35 112.7
196 35 109.5
197 80 111.2
198 80 111.2
199 35 109.5
200 80 111.2
201 35 109.5
202 63 110.1
203 65 109
204 35 109.5
205 80 111.2
206 35 109.5
207 63 114
208 41 109.5
209 43 109.5
210 43 109.5
211 51 107.6
212 69 109.8
213 69 110
214 69 110
215 78 111.7
216 75 111
217 75 112
218 35 109.5
219 50 108.6
220 50 109.5
221 35 109.5
222 63 115.6
223 35 109.5
224 63 114
225 35 109.5
226 50 114.7
227 63 114
228 35 109.5
229 63 114
230 35 109.5
231 63 115.6
232 35 109.5
233 80 110
234 80 113
235 37.5 110.7
236 35 105
237 63 105
238 35 109.5
239 80 111.2
240 35 105
241 63 111.1
242 41 109.5
243 43 109.5
244 35 109.5
245 50 109.5
246 50 109.5
247 35 109.5
248 80 109.7
249 35 109.5
250 60 112
251 70 118
252 70 118
253 70 124
254 70 124
255 70 124
256 70 124
257 70 118
258 44 96
259 10 109.47
260 150 96.7
261 50 96
262 62 98.9
263 68 103.7
264 65 100
265 10 109.47
266 150 96.7
267 62 104.2
268 62 104.2
269 74 92.4
270 62 94
271 150 180
272 170 180
273 150 180
274 150 180
275 112 180
276 150 180
277 160 180
278 150 180
279 160 180
280 83 116.9
281 83 116.9
282 55 108.5
283 55 108.5
284 83 116.9
285 60 109.5
286 83 116.9
287 10 109.47
288 75 111
289 10 109.47
290 75 111
291 75 111
292 75 111
293 83 116.9
294 100 111.8
295 60 109.5
296 70 104.5
297 100 120.5
298 100 120.5
299 40 130
300 62 96
301 74 107
302 50 121.9
303 70 126.4
304 46 115.7
305 50 121.9
306 50 121.9
307 50 118
308 50 121.9
309 50 118
310 50 121.9
311 70 112
312 70 108.6
313 10 109.5
314 10 100
315 35 110.2
316 35 119.8
317 35 120
318 38 118.4
319 38 118.4
320 38 118.4
321 38 118.4
322 35 119.8
323 50 118
324 50 121.9
325 70 118
326 35 120
327 35 118
328 70 125.2
329 50 120
330 100 111
331 35 119.8
332 70 118
333 70 117
334 35 119.8
335 70 118
336 35 119.8
337 70 118
338 40 113
339 55 128
340 70 121
341 20 126
342 75 109.47
343 51.8 107.2
344 51.8 107.2
345 51.8 107.2
346 51.8 107.2
347 63 111.1
348 10 100
349 35 109.5
350 43.2 108.1
351 43.2 108.1
352 43.2 108.1
353 43.6 106.4
354 10 109.5
355 35 116
356 50 116
357 50 116
358 63 112
359 35 115
360 50 108.6
361 50 108.6
362 50 109.5
363 33 109.47
364 10 109.5
365 33 109.47
366 37.5 109.47
367 80 108
368 80 121.5
369 85 119.7
370 70 119.7
371 70 130
372 10 90
373 35 114.5
374 35 117
375 35 117
376 35 119.7
377 35 120
378 50 112
379 60 114
380 2 90
381 35 120
382 70 123
383 70 123
384 70 124
385 70 124
386 75 121.5
387 80 121.5
388 85 119.4
389 85 120.7
390 35 123.3
391 85 117
392 85 119.7
393 2 90
394 35 120
395 70 123
396 70 123
397 70 124
398 35 119.1
399 70 120
400 70 120
401 70 121.2
402 85 119.4
403 35 119.1
404 35 119.7
405 60 114
406 75 120
407 35 135
408 70 119.7
409 70 124
410 35 119.1
411 35 119.1
412 70 120
413 70 120
414 70 121.2
415 85 119.4
416 40 121
417 80 122
418 80 122
419 80 125
420 70 120
421 85 120
422 70 119.7
423 10 90
424 63 120
425 70 120
426 70 120
427 70 120
428 70 120
429 70 120
430 70 120
431 70 120
432 70 120
433 70 120
434 70 124
435 75 120
436 80 120
437 80 120
438 85 119.4
439 85 120
440 2 90
441 35 119.1
442 35 120
443 35 120
444 70 124
445 70 120
446 70 120
447 70 120.1
448 70 120.1
449 35 116
450 70 116
451 70 116
452 70 119.3
453 70 120
454 70 121.5
455 70 121.5
456 70 124
457 75 120
458 35 120
459 70 108.7
460 70 116
461 70 120
462 70 121.5
463 70 123.3
464 35 120
465 63 120
466 70 108.7
467 70 117.3
468 70 123.5
469 70 128.6
470 70 128.6
471 35 119.1
472 70 108.7
473 70 123.3
474 85 119.4
475 75 120
476 75 120
477 85 119.4
478 35 120
479 85 120
480 35 126.9
481 63 106.4
482 70 107.4
483 35 120
484 63 120
485 70 124
486 35 128.2
487 70 111.8
488 70 124.1
489 85 120
490 70 124
491 10 90
492 35 120
493 2 90
494 35 120
495 70 118.7
496 70 124
497 35 123.3
498 85 117
499 35 120
500 70 124
501 70 124
502 35 122
503 35 120
504 70 124
505 70 124
506 50 109.5
507 50 109.5
508 92.6 111.55
509 33 109.5
510 35 109.5
511 35 109.5
512 37.5 110.7
513 35 109.5
514 50 109.5
515 50 113
516 10 100
517 43.6 109.5
518 10 100
519 55 114
520 35 109.5
521 35 109.5
522 35 109.5
523 35 109.5
524 35 109.5
525 10 100
526 50 118
527 35 113
528 35 118.4
529 35 120
530 50 123.2
531 50 123.2
532 50 123.2
533 35 118.4
534 35 120
535 35 120
536 70 120.5
537 70 120
538 5 120
539 35 113
540 50 118
541 70 117
542 70 120.5
543 70 117
544 70 117
545 70 118.6
546 70 112.2
547 70 117
548 70 114
549 70 126.4
550 35 116.8
551 35 119.2
552 70 121.6
553 35 118
554 70 125.2
555 70 125.2
556 30 125.8
557 70 125.8
558 56 118.4
559 70 118.4
560 70 118.4
561 30 128.8
562 70 109.8
563 70 128.8
564 35 123.1
565 35 120
566 35 120
567 35 120
568 70 116
569 35 115.45
570 70 115.5
571 70 123.3
572 70 120
573 85 134.9
574 70 120
575 70 127.7
576 85 117.3
577 85 119.2
578 70 126.2
579 70 130
580 70 132.4
581 85 134.9
582 85 116.2
583 70 130
584 85 134.9
585 70 125.2
586 35 120
587 35 120
588 35 120
589 45 102.6
590 100 108.23
591 45 109.5
592 45 102.6
593 45 109.5
594 100 108.23
595 45 109.5
596 45 109.5
597 45 109.5
598 45 108.23
599 45 109.5
600 100 108.23
601 140 119.9
602 62 102
603 75 96.4
604 74 108.7
605 74 108.9
606 100 103
607 120 107
608 62 102
609 62 102
610 74 107.2
611 75 96.4
612 100 103
613 62 102
614 35 126.8
615 70 128.6
616 35 126.8
617 70 125
618 70 132.8
619 85 122.7
620 70 125
621 70 125
622 35 117
623 35 125
624 35 120
625 70 125
626 70 125
627 35 120
628 70 125
629 70 126.2
630 35 120
631 70 111
632 70 124.5
633 35 128.2
634 70 130.7
635 70 125
636 70 121.6
637 70 125
638 35 113.4
639 35 125
640 35 130.7
641 35 130.7
642 35 121.6
643 70 121.6
644 70 121.6
645 85 120
646 70 118.9
647 35 120
648 35 130.7
649 70 130.7
650 70 120
651 35 132.1
652 70 132.1
653 70 132.1
654 85 120
655 35 120
656 70 121.6
657 35 130.7
658 70 130.7
659 63 120
660 70 124
661 63 120
662 63 120
663 63 120
664 63 120
665 63 120
666 63 120
667 35 120
668 35 126.8
669 70 128.6
670 35 125.7
671 35 126.8
672 70 125
673 70 130
674 35 127.5
675 35 128.6
676 35 118.9
677 70 118.9
678 80 134
679 80 134
680 55 127
681 50 126
682 35 108
683 35 114.3
684 35 114.3
685 35 114.3
686 37.5 108
687 35 109.5
688 37.5 110
689 70 117
690 35 111
691 37.5 117.2
692 37.5 117.2
693 37.5 126
694 63 114
695 172.8 120
696 144 120
697 35 109.5
698 43.6 106.4
699 50 112.5
700 50 120.5
701 80 117.5
702 80 117.5
703 45 109.5
704 70 117.6
705 70 117.6
706 35 119.2
707 35 119.2
708 70 121.2
709 70 121.6
710 70 117.6
711 70 121.2
712 30 125.8
713 70 125.8
714 30 128.8
715 70 128.8
716 20 109.5
717 20 109.5
718 50 118
719 50 121.9
720 35 110.5
721 60 110
722 60 100
723 35 110.5
724 35 109.5
725 35 110.5
726 35 109.5
727 35 110.5
728 35 110.5
729 35 110.5
730 50 112
731 35 123.3
732 35 120
733 70 124
734 35 120
735 70 124
736 85 117
737 160 180
738 160 180

Dihedral Coeffs # opls

1 -3.4 1.25 3.1 0
2 0.3 0 1.3 0
3 0.3 0 1.3 0
4 0.3 0 1.3 0
5 -3.4 1.25 3.1 0
6 1.6 3.2 0 0
7 0 0.5 0 0
8 0 0 0 0
9 0 0 0 0
10 0.7 -1.5 0 0
11 -0.5 0.2 0 0
12 0.8 -0.76 0 0
13 -0.9 0.3 0 0
14 0 0 0.3 0
15 3 5.5 0 0
16 0 5 0 0
17 1.5 5.5 0 0
18 -2 5 0 0
19 1.5 5.5 0 0
20 4 5 0 0
21 0 0 0 0
22 0 0 0.36 0
23 0 0 0.085 0
24 0 0 0 0
25 0 0 0 0
26 -0.65 0 0 0
27 0 0.82 0 0
28 0 0 0 0
29 0 0 0 0
30 0 0.546 0 0
31 0 1.412 0 0
32 5.26 0.82 0 0
33 0 0 0 0
34 1.454 -0.144 -0.775 0
35 0 0 0.275 0
36 0 0 -0.553 0
37 0 0 0.132 0
38 0 0 0 0
39 0 0 0.36 0
40 1.173 0.189 -1.2 0
41 0.65 0 0 0
42 1.816 1.222 1.581 0
43 0 0 0 0
44 0 0 0 0
45 0 0 0.36 0
46 0 0 0.275 0
47 0 0.82 0 0
48 0 0.82 0 0
49 0 0 0 0
50 0 0 0 0
51 0 0 0.36 0
52 0 0 0 0
53 0 5.124 0 0
54 0 5 0 0
55 4.669 5.124 0 0
56 1.5 5 0 0
57 -2 5 0 0
58 4.669 5.124 0 0
59 4 5 0 0
60 0.4 4.9 0 0
61 0 4.9 0 0
62 0 6.603 0 0
63 0 6.089 0 0
64 0 4.9 0 0
65 0 6.089 0 0
66 0 6.089 0 0
67 0 6.089 0 0
68 2.3 6.089 0 0
69 0 4.9 0 0
70 4.542 6.603 1.045 0
71 2.3 6.089 0 0
72 0 4.9 0 0
73 2.3 6.089 0 0
74 2.3 6.089 0 0
75 0 4.9 0 0
76 2.3 6.089 0 0
77 4.6 0 0 0
78 0 4.9 0 0
79 2.3 6.089 0 0
80 0 4.9 0 0
81 0 4.9 0 0
82 0 4.9 0 0
83 2.3 6.089 0 0
84 2.3 6.089 0 0
85 2.3 6.089 0 0
86 2.3 6.089 0 0
87 2.3 6.089 0 0
88 2.3 6.089 0 0
89 0 4.9 0 0
90 2.3 6.089 0 0
91 2.3 6.089 0 0
92 2.3 6.089 0 0
93 0.9 0.23 -0.505 0
94 0 0 0 0
95 2.5 6 0 0
96 3.2 -3 0 0
97 0 0 0 0
98 2 0 0 0
99 0 0 0 0
100 2 0 0 0
101 0 2.1 0 0
102 0 2.1 0 0
103 0 0.2 0 0
104 0 2.1 0 0
105 0 1.1 0 0
106 0 0.2 0 0
107 0.9 0.23 -0.505 0
108 2.5 6 0 0
109 3.2 -3 0 0
110 0.8 -3 0 0
111 0 14 0 0
112 0 14 0 0
113 0 14 0 0
114 0 14 0 0
115 0 7 0 0
116 0 7 0 0
117 0 0 0 0
118 2 1 0 0
119 0 1 0 0
120 -2 1 0 0
121 0 1 0 0
122 -0.75 1.5 0 0
123 0.75 1.5 0 0
124 0 1.5 0 0
125 0 1.5 0 0
126 0 2.17 0 0
127 0 7.25 0 0
128 0 2.1 0 0
129 0 2.1 0 0
130 0 1.1 0 0
131 0 1.1 0 0
132 0 4.9 0 0
133 0 4.9 0 0
134 2.5 6 0 0
135 3.2 -3 0 0
136 0 0 0 0
137 0.3 0 0.5 0
138 0.3 0 0.5 0
139 0 0 0.2 0
140 0 0 0.2 0
141 -0.356 -0.174 0.492 0
142 0 0 0.352 0
143 -0.9 0 0 0
144 -0.9 0 0 0
145 -0.9 0 0 0
146 0 0 0.3 0
147 0 0 0.3 0
148 5.519 -6.7 0.581 0
149 2.722 -5.154 0 0
150 0 1.682 0 0
151 0 1.682 0 0
152 -1.257 -1.806 0.003 0
153 3 3 0 0
154 0 0 0 0
155 0 0 0 0
156 -0.75 0 0 0
157 0.75 0 0 0
158 2 0 0 0
159 -4.344 -1.714 0 0
160 1.711 -0.5 0.663 0
161 1.428 0.086 0.029 0
162 -2.5 0 0.25 0
163 0 0 0.54 0
164 0.3 -0.4 0.4 0
165 0 0 0.4 0
166 -0.55 0 1 0
167 -6.18 0 0 0
168 -2.06 -0.313 0.315 0
169 -4.344 -1.714 0 0
170 -4.344 -1.714 0 0
171 -9 2 0.8 0
172 0 0 -0.1 0
173 -1.697 -0.456 0.585 0
174 -1.697 -0.456 0.585 0
175 9.508 0 0 0
176 -1.552 0 0 0
177 4.319 0 0 0
178 8 0 0 0
179 6.28 -1.467 2.03 0
180 0 0 0.468 0
181 1.3 -0.05 0.2 0
182 1.262 -0.198 0.465 0
183 2.619 -0.62 0.258 0
184 0 -0.65 0 0
185 0 0 0.4 0
186 2.392 -0.674 0.55 0
187 0.845 -0.962 0.713 0
188 0 0 0.3 0
189 1.3 -0.05 0.2 0
190 2.732 -0.229 0.485 0
191 0 0 0.4 0
192 0 0 0.4 0
193 1.262 -0.198 0.465 0
194 1.964 0 0.659 0
195 0 0 0 0
196 0 0 0.452 0
197 0 0 0.452 0
198 0 0 0.366 0
199 -0.55 0 0 0
200 0 0 0.468 0
201 -0.25 0 0 0
202 2 0 0 0
203 0 0 0.4 0
204 11.035 -0.968 0.27 0
205 -1.013 -0.709 0.473 0
206 -0.8 0 0 0
207 0 0 0.464 0
208 0.845 -0.962 0.713 0
209 0.845 -0.962 0.713 0
210 0 0 0.3 0
211 0 0 0.366 0
212 0 0 0.462 0
213 0 0 0.3 0
214 0 0 0.384 0
215 0 0 -0.582 0
216 0 0 0.462 0
217 0 0 0.462 0
218 0 0 0.4 0
219 0 0 0.4 0
220 0 0 0.452 0
221 0 0 0.462 0
222 0 0 0.462 0
223 0 0 0.462 0
224 0 0 0.462 0
225 0 0 0.462 0
226 0 0 0.462 0
227 0 0 -0.225 0
228 0 0 0.3 0
229 0 0 0.464 0
230 0 0 0.45 0
231 0 0 0.366 0
232 1 0 0 0
233 5.2 -0.5 0 0
234 -0.759 -0.282 0.68 0
235 0 0 0.48 0
236 0.925 -0.576 0.677 0
237 1.941 -0.836 0.935 0
238 0 0 0.647 0
239 0 0 0.558 0
240 0 0 0.647 0
241 0 0 0 0
242 0 0 0 0
243 0 0 0 0
244 0 0 0 0
245 0 0 0 0
246 0 0 0 0
247 -0.521 -2.018 1.996 0
248 -0.5 -1.5 1 0
249 -0.5 -1.5 1 0
250 -1.22 -0.126 0.422 0
251 0.65 -0.25 0.67 0
252 -1.42 -0.62 0.1 0
253 0 0 0.76 0
254 0 0 0.198 0
255 0 0 0.76 0
256 0 0 0.76 0
257 0 0 0.76 0
258 0 0 0.3 0
259 0 0 0 0
260 -2.365 0.912 -0.85 0
261 -1.737 1.251 -3.501 0
262 0 0 0 0
263 0 0.462 0 0
264 4.753 -0.734 0 0
265 0 0 0 0
266 0 0 0 0
267 2.929 -2.533 0.497 0
268 2.3 6.089 0 0
269 0 0 0 0
270 0 0 0 0
271 0 0 0 0
272 0 0 0 0
273 1.362 -1.457 0.149 0
274 0 0 0 0
275 0.416 -0.128 0.695 0
276 -0.19 -0.417 0.418 0
277 0 0 0.56 0
278 0 0 0.4 0
279 0 0 0.56 0
280 1.711 -0.5 0.663 0
281 0 0 0.468 0
282 0.5 0 0 0
283 0.5 0 0 0
284 0.5 0 0 0
285 2.817 -0.169 0.543 0
286 0.346 0.405 -0.904 0
287 0.346 0.405 -0.904 0
288 0 0 0.3 0
289 0 0 0.318 0
290 0 0 -0.372 0
291 0 0 -0.372 0
292 0 0 -0.25 0
293 0 -8 0 0
294 0 -8 0 0
295 0 0 0 0
296 0 0.45 0 0
297 0 0 0 0
298 -0.5 0.5 -0.5 0
299 0 -0.4 0 0
300 0 0 0 0
301 0 0 0 0
302 0 0 0.4 0
303 0.5 0 0 0
304 0.346 0.405 -0.904 0
305 0 0 -0.372 0
306 0 0 -0.372 0
307 0 0 -0.372 0
308 1.711 -0.5 0.663 0
309 0 0 0.3 0
310 0 0 0.468 0
311 1.438 -0.124 0.264 0
312 0 0 0.347 0
313 0 0 0.302 0
314 0 0 0.261 0
315 0 0 0.462 0
316 0 0 0.3 0
317 -0.19 -0.417 0.418 0
318 1.829 0.243 -0.498 0
319 -0.19 -0.417 0.418 0
320 0 0 0 0
321 0 0 0 0
322 0 0 0.177 0
323 0 0 0 0
324 0 0 0 0
325 1 -0.35 0 0
326 2.756 -0.872 -3.68 0
327 -1 -0.35 0 0
328 1.5 -1.5 0 0
329 -1.5 -1.5 0 0
330 -1.5 -1.5 0 0
331 0 0 0 0
332 0 0.5 -0.5 0
333 0 0 0 0
334 0 0 0 0
335 0 0 0 0
336 0 0 0.25 0
337 0 0 0.25 0
338 2.25 0 0 0
339 0 0 0 0
340 0 0 0 0
341 0 0 0 0
342 0 0 0 0
343 0 0 0 0
344 0 0 0.35 0
345 0 0 0.35 0
346 0 0 0.35 0
347 0 0 0.35 0
348 0 0 0 0
349 0 0 0 0
350 -0.714 0 0 0
351 0 0 0 0
352 0 0 0 0
353 0 0 -0.48 0
354 0 0 0 0
355 0 0 0 0
356 0 0 0 0
357 0 0 0 0
358 0 0.45 0 0
359 0 0 0 0
360 1.7 -0.6 0 0
361 0 -0.4 0 0
362 0 0 0 0
363 0 0.45 0 0
364 0 0 0 0
365 0 -0.4 0 0
366 0 0 0 0
367 0 0 0 0
368 0 0 0 0
369 0 0 0 0
370 0 0 0 0
371 0 0 0.3 0
372 0 -1 0 0
373 0 -1 0 0
374 0 0.4 0 0
375 0 0 0 0
376 1 -0.5 0.5 0
377 0 0 0.3 0
378 0 0 0 0
379 1 -0.35 0 0
380 -1 -0.35 0 0
381 -1 -0.35 0 0
382 1.5 -1.5 0 0
383 3.132 -1.491 2.744 0
384 -1.5 -1.5 0 0
385 -1.737 1.251 -3.501 0
386 -1.396 -0.427 0 0
387 4.753 -0.734 0 0
388 0 0 -0.139 0
389 0 0 0 0
390 0 0 0 0
391 1 0 0 0
392 0 0 0.26 0
393 0 0 0.18 0
394 0 0 0 0
395 0 0 0.18 0
396 0.346 0.405 -0.904 0
397 0 0 0.3 0
398 0 0 0.318 0
399 0 0 -0.372 0
400 0 1.1 0 0
401 0 1.1 0 0
402 0 -7.414 1.705 0
403 0 0.6 0 0
404 1.6 5.1 0 0
405 0 4.8 0 0
406 0 7.25 0 0
407 0 0 0 0
408 0 0 0 0
409 0 0 0 0
410 0 0 0 0
411 0 0 0 0
412 0 0 0 0
413 0 0 0 0
414 0 0 0 0
415 0 0 0 0
416 0 0 0 0
417 0 0 0 0
418 0 0 0 0
419 0 0 0 0
420 0 0 0.3 0
421 0 0 0.3 0
422 0.65 -0.25 0.67 0
423 0 0 0.76 0
424 -3.5 3 0 0
425 -3.5 3 0 0
426 0 2.5 0 0
427 0 3 0 0
428 0.4 5.5 0 0
429 0 2.99 0 0
430 -0.375 -1.358 0.004 0
431 0.65 -0.25 0.67 0
432 -0.375 -1.358 0.004 0
433 0 0 0.76 0
434 3 3 0 0
435 0 5.2 0 0
436 0 0 0.562 0
437 3.5 -3.3 1.5 0
438 0 0 0 0
439 0 0 0 0
440 0 7.25 0 0
441 0 0 0 0
442 0 2.1 0 0
443 0 2.1 0 0
444 0 2.1 0 0
445 0 2.1 0 0
446 0 2.1 0 0
447 0 2.1 0 0
448 0 2.1 0 0
449 0 7.25 0 0
450 0 7.25 0 0
451 0 7.25 0 0
452 0 7.25 0 0
453 0 0 0 0
454 2.074 -2.966 2.473 0
455 1.671 -4.901 0.669 0
456 0 2.1 0 0
457 0 2.1 0 0
458 0 2.1 0 0
459 0 2.1 0 0
460 0 2.1 0 0
461 0 2.1 0 0
462 0 2.1 0 0
463 0 2.17 0 0
464 0 3 0 0
465 0 2.1 0 0
466 0 2.1 0 0
467 0 2.1 0 0
468 0 2.1 0 0
469 0 2.17 0 0
470 0 2.17 0 0
471 0 7.25 0 0
472 0 2.17 0 0
473 0 2.17 0 0
474 0 2.17 0 0
475 0 2.17 0 0
476 0 0 0 0
477 -1.396 -0.427 0 0
478 -1.396 -0.427 0 0
479 0 0 0 0
480 0 0 0 0
481 0 0 0 0
482 0 0 0 0
483 0 0 0.3 0
484 0 0 0.3 0
485 0 0 0.3 0
486 -7.582 3.431 3.198 0
487 0 2.03 0 0
488 0 2.1 0 0
489 0 2.1 0 0
490 0 2.1 0 0
491 0 2.1 0 0
492 0 2.1 0 0
493 0 2.1 0 0
494 0 2.1 0 0
495 0 -8 0 0
496 0 -8 0 0
497 0 14 0 0
498 0 14 0 0
499 0 14 0 0
500 0 14 0 0
501 0 14 0 0
502 0 14 0 0
503 0 14 0 0
504 0 14 0 0
505 0 14 0 0
506 0 14 0 0
507 0 14 0 0
508 0 14 0 0
509 -1.6 14 0 0
510 0 14 0 0
511 0 14 0 0
512 0 14 0 0
513 0.205 -0.531 0 0
514 0 0 -0.372 0
515 0 0 -0.372 0
516 1.241 3.353 -0.286 0
517 0 14 0 0
518 0 14 0 0
519 0 14 0 0
520 0 14 0 0
521 0 14 0 0
522 0 14 0 0
523 0 14 0 0
524 0 14 0 0
525 0 14 0 0
526 0 14 0 0
527 0 14 0 0
528 0 2.17 0 0
529 0 2.17 0 0
530 0 7.25 0 0
531 0 7.25 0 0
532 0 7.25 0 0
533 0 2.17 0 0
534 0 2.17 0 0
535 0 0 0 0
536 0 0 0 0
537 0 7.25 0 0
538 0 7.25 0 0
539 0 7.25 0 0
540 0 7.25 0 0
541 0 7.25 0 0
542 0 7.25 0 0
543 0 7.25 0 0
544 0 7.25 0 0
545 0 7.25 0 0
546 0 7.25 0 0
547 0 7.25 0 0
548 0 7.25 0 0
549 0 7.25 0 0
550 0 7.25 0 0
551 0 7.25 0 0
552 0 7.25 0 0
553 0 7.25 0 0
554 0 1.62 0 -0.44
555 0 7.25 0 0
556 0 7.25 0 0
557 0 7.25 0 0
558 0 7.25 0 0
559 0 7.25 0 0
560 0 7.25 0 0
561 0 7.25 0 0
562 0 7.25 0 0
563 0 7.25 0 0
564 0 7.25 0 0
565 0 7.25 0 0
566 0 7.25 0 0
567 0 7.25 0 0
568 0 0 -0.372 0
569 1.241 3.353 -0.286 0
570 0 0 -0.372 0
571 1.241 3.353 -0.286 0
572 0 0 0 0
573 0 0 0 0
574 0 2.03 0 0
575 0 3.9 0 0
576 0 7.936 0 0
577 0 3.9 0 0
578 0 2.03 0 0
579 0 7.25 0 0
580 0 7.25 0 0
581 0 7.25 0 0
582 0 7 0 0
583 0 0 0 0
584 0 -0.9 0 0
585 1.656 -0.768 -0.117 0
586 0 7.25 0 0
587 0 7.25 0 0
588 0 7.25 0 0
589 0 7.25 0 0
590 0 7.25 0 0
591 0 7.25 0 0
592 0 7.25 0 0
593 0 7.25 0 0
594 0 7.25 0 0
595 0 3.651 0 0
596 0 1.15 0 0
597 0.205 -0.531 0 0
598 0 0 -0.372 0
599 1.241 3.353 -0.286 0
600 0 7.25 0 0
601 0 7.25 0 0
602 0 0 0.3 0
603 0 0 0.3 0
604 0 0 -0.372 0
605 0 0 0.3 0
606 0 0 -0.372 0
607 1.423 4.055 0.858 0
608 0 0 0.3 0
609 0 0 -0.372 0
610 0 0 0.3 0
611 0 0 0.3 0
612 0 0 -0.372 0
613 0 0 -0.372 0
614 0 0 -0.372 0
615 1.423 4.055 0.858 0
616 0 2.1 0 0
617 0 2.1 0 0
618 0 2.03 0 0
619 0 7.25 0 0
620 0 7.25 0 0
621 0 7.25 0 0
622 0 7.25 0 0
623 0 7.25 0 0
624 0 7.25 0 0
625 0 5 0 0
626 0 10 0 0
627 0 5 0 0
628 0 5 0 0
629 0 2.17 0 0
630 0 2.17 0 0
631 0 7.25 0 0
632 0 10 0 0
633 0 7.25 0 0
634 0 2.17 0 0
635 0 2.17 0 0
636 0 2.17 0 0
637 0 2.17 0 0
638 0 10.75 0 0
639 0 10.75 0 0
640 0 10.75 0 0
641 0 10.75 0 0
642 0 7.25 0 0
643 0 2.17 0 0
644 0 2.17 0 0
645 0 10.75 0 0
646 0 10.75 0 0
647 0 10.75 0 0
648 0 2.17 0 0
649 0 2.17 0 0
650 0 2.17 0 0
651 0 2.17 0 0
652 0 7.25 0 0
653 0 7.25 0 0
654 0 7.25 0 0
655 0 10.75 0 0
656 0 7.25 0 0
657 0 7.25 0 0
658 0 2.17 0 0
659 0 2.17 0 0
660 0 2.17 0 0
661 0 2.17 0 0
662 0 2.17 0 0
663 0 7.25 0 0
664 0 6.089 0 0
665 0 4.9 0 0
666 0 6.089 0 0
667 0 20 0 0
668 2.3 6.089 0 0
669 0 4.9 0 0
670 2.3 6.089 0 0
671 0 0 0 0
672 0 0 0 0
673 0 0 0 0
674 0 0 0 0
675 0 0 0 0
676 0 0 0 0
677 0 0 0 0
678 0 0 0 0
679 0 0 0 0
680 0 14 0 0
681 0 14 0 0
682 0 14 0 0
683 0 14 0 0
684 0 14 0 0
685 0 14 0 0
686 0 14 0 0
687 0 14 0 0
688 0 14 0 0
689 0 14 0 0
690 0 14 0 0
691 0 14 0 0
692 1.816 1.222 1.581 0
693 0 0.82 0 0
694 1 0 0 0
695 -1.697 -0.456 0.585 0
696 -1.697 -0.456 0.585 0
697 -1.697 -0.456 0.585 0
698 6.28 -1.467 2.03 0
699 1.428 0.086 0.029 0
700 1.428 0.086 0.029 0
701 2.732 -0.229 0.485 0
702 0.845 -0.962 0.713 0
703 1 0 0 0
704 0.845 -0.962 0.713 0
705 1 0 0 0
706 0.845 -0.962 0.713 0
707 0 0 0.462 0
708 1 0 0 0
709 1.438 -0.124 0.264 0
710 0 0 0.347 0
711 0 0 0.347 0
712 0 0 0 0
713 0 0 0 0
714 1.7 -0.6 0 0
715 0 0 0 0
716 0 3.9 0 0
717 0 7.25 0 0
718 1.3 -0.05 0.2 0
719 1.3 -0.05 0.2 0

Improper Coeffs # harmonic

1 10.5 0
2 10.5 0
3 1 0
4 15 0
5 1.1 0

Atoms # full

1 1 14 0.0000000000000000e+00 -2.8209719384660232e+00 -4.7743654346006341e+00 -1.0289456224557156e+00 0 0 0
2 1 14 0.0000000000000000e+00 -3.2491951171725910e+00 -3.7090493604221288e+00 -2.5519349719108353e-01 0 0 0
6 1 13 -1.1500000000000000e-01 -3.4397452059928968e+00 -5.9945579122405688e+00 -9.2906339037142804e-01 0 0 0
7 1 13 -1.1500000000000000e-01 -2.6306408936556251e+00 -2.4886415005467808e+00 -3.5478633053131564e-01 0 0 0
8 1 13 -1.1500000000000000e-01 -1.6569291942969175e+00 -2.3129854189077714e+00 -1.2998948596526663e+00 0 0 0
9 1 13 -1.1500000000000000e-01 -1.2299364267081576e+00 -3.3758803665552648e+00 -2.0715703361642284e+00 0 0 0
10 1 13 -1.1500000000000000e-01 -1.7746243852479291e+00 -4.6193558422521139e+00 -1.9017043236282318e+00 0 0 0
14 1 15 1.1500000000000000e-01 -3.0555740962079012e+00 -6.8001378349087975e+00 -1.5711039595386014e+00 0 0 0
16 1 15 1.1500000000000000e-01 -1.2311803140448181e+00 -1.3438438155485104e+00 -1.4187897297666612e+00 0 0 0
17 1 15 1.1500000000000000e-01 -4.6531489827804395e-01 -3.2501062628509607e+00 -2.8020754204900573e+00 0 0 0
18 1 15 1.1500000000000000e-01 -1.4801800178276787e+00 -5.5031058695761343e+00 -2.4854594087352093e+00 0 0 0
13 1 15 1.1500000000000000e-01 -4.8388424246616379e+00 -7.1396657729179758e+00 1.3427292159197482e-01 0 0 0
3 1 13 -1.1500000000000000e-01 -4.2955745196045783e+00 -3.8636509279789828e+00 6.1772295097801011e-01 0 0 0
4 1 13 -1.1500000000000000e-01 -4.8403745683213195e+00 -5.1072588542029012e+00 7.8755935402038224e-01 0 0 0
5 1 13 -1.1500000000000000e-01 -4.4135070882263809e+00 -6.1701860383691880e+00 1.5886706481097877e-02 0 0 0
11 1 15 1.1500000000000000e-01 -4.5894723123845704e+00 -2.9793443073795602e+00 1.2012619470780905e+00 0 0 0
12 1 15 1.1500000000000000e-01 -5.6050792656983841e+00 -5.2337089503322511e+00 1.5179811140283193e+00 0 0 0
15 1 15 1.1500000000000000e-01 -3.0154645627621348e+00 -1.6836015504236093e+00 2.8778561621213461e-01 0 0 0

Velocities

1 1.7928914192453073e-03 -4.3975639994002676e-03 -3.1602706552886542e-03
2 -1.8003203959335136e-03 4.4326244071571132e-03 3.1826833899909440e-03
6 -6.1675121243275793e-04 -1.3249807339382760e-02 -2.7270419618235118e-03
7 6.4194548149548096e-04 1.3262690913399213e-02 2.7296516572783104e-03
8 1.9134443390097626e-03 1.9487401292191022e-03 -1.1480052693358435e-03
9 2.0571949887415774e-03 1.4860908437613163e-03 -1.4773262345727433e-03
10 7.7951440082203805e-03 -4.5512040292877550e-03 -1.0093072776263576e-02
14 -8.8721021992183517e-03 1.0880695401670245e-02 1.1070074643176759e-02
16 6.5161224514657468e-03 1.0207435546328124e-02 4.5677507537561076e-03
17 1.1702052399480663e-02 -2.6326660909752001e-03 -4.8249761815188311e-03
18 -1.7940645913324419e-03 1.5864779530070306e-02 8.2620188211397477e-03
13 -6.5757485107816160e-03 -1.0188473502225600e-02 -4.5518687926154157e-03
3 -7.8074651903569745e-03 4.5218047980196052e-03 1.0079422620938238e-02
4 -2.0512145154952884e-03 -1.4900206723393761e-03 1.4664587360672570e-03
5 -1.9204627408652452e-03 -1.9585967144199715e-03 1.1456524030256285e-03
11 1.7102087678644311e-03 -1.5940146528250654e-02 -8.1922573916928636e-03
12 -1.1726691744634374e-02 2.6588325238240769e-03 4.8909391039719573e-03
15 8.9877208006222120e-03 -1.0907155672515661e-02 -1.1199659717333393e-02

Bonds

1 163 1 10
2 163 1 6
3 163 1 2
4 163 2 3
5 163 2 7
6 164 6 14
7 164 7 15
8 163 7 8
9 163 8 9
10 164 8 16
11 164 9 17
12 163 9 10
13 164 10 18
14 164 3 11
15 163 3 4
16 164 4 12
17 163 4 5
18 164 5 13
19 163 5 6

Angles

1 424 2 1 10
2 424 2 1 6
3 424 6 1 10
4 424 1 2 3
5 424 1 2 7
6 424 3 2 7
7 424 1 6 5
8 443 1 6 14
9 443 5 6 14
10 443 2 7 15
11 424 2 7 8
12 443 8 7 15
13 424 7 8 9
14 443 7 8 16
15 443 9 8 16
16 443 8 9 17
17 424 8 9 10
18 443 10 9 17
19 443 1 10 18
20 424 1 10 9
21 443 9 10 18
22 443 2 3 11
23 424 2 3 4
24 443 4 3 11
25 443 3 4 12
26 424 3 4 5
27 443 5 4 12
28 443 4 5 13
29 424 4 5 6
30 443 6 5 13

Dihedrals

1 552 2 1 10 18
2 551 2 1 10 9
3 551 2 1 6 5
4 552 2 1 6 14
5 552 6 1 10 18
6 551 6 1 10 9
7 551 6 1 2 7
8 552 10 1 6 14
9 552 1 2 3 11
10 551 1 2 3 4
11 552 1 2 7 15
12 551 1 2 7 8
13 551 3 2 1 10
14 551 3 2 1 6
15 552 3 2 7 15
16 551 3 2 7 8
17 551 7 2 1 10
18 552 7 2 3 11
19 551 1 6 5 4
20 552 1 6 5 13
21 551 5 6 1 10
22 551 2 7 8 9
23 552 2 7 8 16
24 560 15 7 8 16
25 552 7 8 9 17
26 551 7 8 9 10
27 552 9 8 7 15
28 560 16 8 9 17
29 552 8 9 10 18
30 552 10 9 8 16
31 560 17 9 10 18
32 552 1 10 9 17
33 551 1 10 9 8
34 552 2 3 4 12
35 551 2 3 4 5
36 551 4 3 2 7
37 560 11 3 4 12
38 552 3 4 5 13
39 551 3 4 5 6
40 552 5 4 3 11
41 560 12 4 5 13
42 552 4 5 6 14
43 552 6 5 4 12
44 560 13 5 6 14

Impropers

1 5 2 1 3 7
2 5 6 1 5 14
3 5 10 1 9 18
4 5 1 2 6 10
5 5 3 2 4 11
6 5 7 2 8 15
7 5 8 7 9 16
8 5 9 8 10 17
9 5 4 3 5 12
10 5 5 4 6 13
