      35
 i =       19, E =      -117.0715149068
  C        -1.5256155973        2.3522820398       -0.0478625169
  C        -2.0097890937        1.0651534287        0.6270010558
  H        -0.5591581320        2.1811034757       -0.5428642121
  H        -1.3819428502        3.1626215437        0.6798269295
  C        -2.2087728476       -0.1099243371       -0.3705020060
  C        -3.3630653759        1.2148981908        1.3607157141
  C        -3.3512175783       -0.9131789991        0.2516646965
  C        -0.9188123801       -0.9006446915       -0.6741395779
  N        -4.2992976005        0.1341681299        0.8200049048
  H        -3.2716044443        1.0470035191        2.4395302472
  H        -3.9219330282       -1.5598026778       -0.4247884595
  H        -0.1562872391       -0.1774631388       -1.0008613532
  H        -1.0982348431       -1.5608406150       -1.5355511233
  C        -5.1819901301       -0.4478056796        1.8907359256
  C        -5.1944442684        0.6759406622       -0.2713738683
  H        -5.8252078319       -1.2024438143        1.4016707427
  H        -5.8243310537        0.3483014027        2.2817478349
  H        -4.5433456777       -0.8624764823        2.6765339389
  H        -5.8596005124       -0.1541574569       -0.5784280873
  H        -4.5712863869        1.0667111057       -1.0799727954
  H        -5.8125271694        1.4688934875        0.1619208245
  H        -1.2537072892        0.7527806004        1.3594260407
  H        -2.5647134622        0.3134751696       -1.3216230032
  H        -2.2444008572        2.7002143385       -0.8030128033
  H        -0.2047102209       -1.0960019659        1.3701917556
  C        -0.3249825295       -1.7264735965        0.4776960290
  C         1.0587963481       -2.2917431760        0.1232763416
  H        -1.0077396566       -2.5466468631        0.7430465255
  C         2.2416003136       -1.2955298933        0.2469453670
  H         1.3078437126       -3.1408824630        0.7767773399
  O         3.3699088662       -1.7779937840       -0.1300186662
  O         2.0228326507       -0.1419133415        0.7196383444
  H         1.0771293046       -2.7008679332       -0.8973359601
  H        -3.8487211738        2.1828717497        1.2009876631
  H        -2.9961954825       -1.5087864383        1.1009612316
