LAMMPS data file via write_data, version 3 Mar 2020, timestep = 1000000

16712 atoms
18 atom types
12534 bonds
12 bond types
12534 angles
14 angle types
0 dihedrals
15 dihedral types
0 impropers
2 improper types

0.0000000000000000e+00 5.0000000000000000e+01 xlo xhi
0.0000000000000000e+00 5.0000000000000000e+01 ylo yhi
0.0000000000000000e+00 5.0000000000000000e+01 zlo zhi

Masses

1 15.9994
2 1.008
3 12.011
4 12.011
5 12.011
6 12.011
7 12.011
8 1.008
9 12.011
10 12.011
11 12.011
12 1.008
13 12.011
14 1.008
15 12.011
16 15.9994
17 1.008
18 1e-30

Pair Coeffs # lj/cut/coul/long

1 0.1554 3.16557
2 0 0
3 0.066 3.5
4 0.066 3.5
5 0.066 3.5
6 0.066 3.5
7 0.066 3.5
8 0.03 2.5
9 0.076 3.55
10 0.076 3.55
11 0.076 3.55
12 0.03 2.42
13 0.07 3.55
14 0.03 2.42
15 0.07 3.55
16 0.155 3.15365
17 0 0
18 0 0

Bond Coeffs # harmonic

1 554.135 1
2 268 1.529
3 340 1.09
4 317 1.51
5 340 1.08
6 549 1.34
7 469 1.4
8 367 1.08
9 317 1.51
10 427 1.433
11 600 0.9572
12 900 0.15

Angle Coeffs # harmonic

1 45.7696 109.47
2 58.35 112.7
3 33 107.8
4 37.5 110.7
5 35 109.5
6 63 112.4
7 70 124
8 35 109.5
9 63 114
10 85 119.7
11 63 120
12 35 120
13 75 104.52
14 50 52.26

Dihedral Coeffs # opls

1 1.3 -0.05 0.2 0
2 0 0 0.3 0
3 0 0 0.3 0
4 0 0 0.366 0
5 0 0 0.462 0
6 0.205 -0.531 0 0
7 0 0 -0.372 0
8 0 14 0 0
9 0 14 0 0
10 0.205 -0.531 0 0
11 0 0 -0.372 0
12 1.241 3.353 -0.286 0
13 0 7.25 0 0
14 0 7.25 0 0
15 0 7.25 0 0

Improper Coeffs # harmonic

1 15 0
2 1 0

Atoms # full

14457 3615 16 0.0000000000000000e+00 6.3842783551210776e+00 1.3444799962340117e+00 4.7669011673068011e+00 1 0 -1
14460 3615 18 -1.0400000000000000e+00 6.2966969702652982e+00 1.2381326742294851e+00 4.7075739977534878e+00 1 0 -1
8791 2198 17 5.2000000000000002e-01 3.9915486249420673e+00 5.3689658375358364e+00 5.4234699459516236e+00 0 1 1
8789 2198 16 0.0000000000000000e+00 3.7983244047379281e+00 5.7439253421468495e+00 4.5642274564956997e+00 0 1 1
8792 2198 18 -1.0400000000000000e+00 3.8369711958006438e+00 5.8166964797904006e+00 4.6895698714541609e+00 0 1 1
14459 3615 17 5.2000000000000002e-01 5.4770308296822066e+00 1.4288742521682996e+00 4.4736313427011156e+00 1 0 -1
2518 630 17 5.2000000000000002e-01 3.9118324661399480e+00 5.2632160781051276e+00 1.5143222241761876e+00 1 1 0
2519 630 17 5.2000000000000002e-01 3.6556580169656527e+00 4.9162159099360609e+00 2.9654802156925255e+00 1 1 0
12908 3227 18 -1.0400000000000000e+00 3.9292737858838298e+00 1.8445037053715110e+00 3.3107952590357317e+00 1 1 1
12906 3227 17 5.2000000000000002e-01 4.0848626809529431e+00 2.6035000958185601e+00 2.9074576370411851e+00 1 1 1
12905 3227 16 0.0000000000000000e+00 4.0317483206041036e+00 1.7350497915254819e+00 3.3064592156040096e+00 1 1 1
2520 630 18 -1.0400000000000000e+00 3.6281431983110304e+00 4.7007858887661556e+00 2.1194316818732468e+00 1 1 0
2517 630 16 0.0000000000000000e+00 3.5745950440864611e+00 4.5669434944219400e+00 2.0779747811042899e+00 1 1 0
12907 3227 17 5.2000000000000002e-01 3.1781286350734268e+00 1.7216220356784382e+00 3.7393330177993405e+00 1 1 1
16085 4022 16 0.0000000000000000e+00 7.4928213241966333e+00 6.7921976133914335e+00 3.2200316535040554e+00 0 0 1
16088 4022 18 -1.0400000000000000e+00 7.4101073205880912e+00 6.6674704174686168e+00 3.2301162947600361e+00 0 0 1
16086 4022 17 5.2000000000000002e-01 7.2297199412294253e+00 6.2047942508143521e+00 2.5115373606744127e+00 0 0 1
6442 1611 17 5.2000000000000002e-01 5.5581538499818741e+00 8.3612226867207351e+00 6.7912749037848763e-01 0 0 0
14458 3615 17 5.2000000000000002e-01 6.6073621046714859e+00 4.2932770460460001e-01 4.5967264636700156e+00 1 0 -1
8790 2198 17 5.2000000000000002e-01 3.9069994242302419e+00 6.6873459957737280e+00 4.6841320584700394e+00 0 1 1
5990 1498 17 5.2000000000000002e-01 7.1593893464081928e+00 4.1582110092336126e+00 1.7249862742579833e+00 0 1 0
9644 2411 18 -1.0400000000000000e+00 7.2158026845132337e+00 2.6221325208401010e+00 2.7468454553396850e+00 1 1 1
6319 1580 17 5.2000000000000002e-01 1.2450483639793884e+01 1.1311965133010915e-02 3.7151039370800785e+00 0 0 1
7889 1973 16 0.0000000000000000e+00 7.5317164879673957e+00 2.8994263917898366e+00 6.8471484573737982e+00 0 0 1
9641 2411 16 0.0000000000000000e+00 7.1279668562563101e+00 2.6513253898184317e+00 2.6288089945141202e+00 1 1 1
16087 4022 17 5.2000000000000002e-01 7.1097842976595622e+00 6.4052688413493488e+00 4.0073046628800491e+00 0 0 1
16278 4070 17 5.2000000000000002e-01 3.3378152450051073e+00 1.6947486302659969e+00 6.4196404610788154e+00 1 0 1
8502 2126 17 5.2000000000000002e-01 6.8563496282857548e+00 1.2857923708031935e+00 1.4050592816771608e+00 1 1 -1
9642 2411 17 5.2000000000000002e-01 6.8748039610089142e+00 2.2603384650674494e+00 3.4650301974720108e+00 1 1 1
5992 1498 18 -1.0400000000000000e+00 7.2434904699385854e+00 4.8510462815080961e+00 1.1997523279222175e+00 0 1 0
5989 1498 16 0.0000000000000000e+00 7.1824215005788048e+00 4.9823864326363987e+00 1.2387430089233458e+00 0 1 0
68 17 18 -1.0400000000000000e+00 1.1201278107482582e+00 7.4412725570300973e+00 3.7584133751185247e+00 1 1 1
65 17 16 0.0000000000000000e+00 1.0379383552915511e+00 7.4820906202273534e+00 3.6397598486030089e+00 1 1 1
66 17 17 5.2000000000000002e-01 1.1142565237568915e+00 6.6103491041703837e+00 4.0276659503768162e+00 1 1 1
7721 1931 16 0.0000000000000000e+00 1.2979972496591305e+00 2.0899657641201248e+00 4.4302596686840303e+00 0 0 1
7890 1973 17 5.2000000000000002e-01 7.1077193565068297e+00 2.4715662197771824e+00 6.1032465279562524e+00 0 0 1
8097 2025 16 0.0000000000000000e+00 1.9224922982285683e+01 6.7771624067083081e-01 2.3224601819457185e+00 -1 0 0
7724 1931 18 -1.0400000000000000e+00 1.1717734620022837e+00 2.1075236781191387e+00 4.3511445119404497e+00 0 0 1
6900 1725 18 -1.0400000000000000e+00 4.7791907259568207e+00 8.7004751441263171e+00 5.2318356210465584e+00 1 0 0
67 17 17 5.2000000000000002e-01 1.6036672851344123e+00 8.0349702744180398e+00 4.1787435629389762e+00 1 1 1
1797 450 16 0.0000000000000000e+00 5.0752291825233433e+00 4.3311011000349255e+00 6.7746985779633979e+00 1 0 0
8285 2072 16 0.0000000000000000e+00 2.1616767286821172e+01 2.3899241927458664e+01 6.7508968795465396e+00 1 -1 0
10290 2573 17 5.2000000000000002e-01 2.2561578418558369e+01 2.4714200039433404e+01 3.4707950613710850e+00 1 1 0
8466 2117 17 5.2000000000000002e-01 1.9029871783629492e+01 2.4751821499688134e+01 5.8060526281799447e+00 -1 0 0
883 221 17 5.2000000000000002e-01 1.6550100041260212e+01 2.4057283826509110e+01 6.3007277621872797e+00 -1 0 0
7723 1931 17 5.2000000000000002e-01 1.1641091204769614e+00 2.6332572354325796e+00 3.6536411860111264e+00 0 0 1
5991 1498 17 5.2000000000000002e-01 7.6825093578983701e+00 4.7805669109544464e+00 4.4791440839363028e-01 0 1 0
11332 2833 18 -1.0400000000000000e+00 1.7287897275156624e+01 1.7789625735252681e+01 2.3652226557761108e-01 1 0 0
3100 775 18 -1.0400000000000000e+00 6.6505275374505048e+00 6.3930273646387299e+00 5.8268570524294923e+00 1 0 0
3098 775 17 5.2000000000000002e-01 6.2026832466820316e+00 5.6482117115400579e+00 5.9143223682514101e+00 1 0 0
3097 775 16 0.0000000000000000e+00 6.5862339158754386e+00 6.5118069403785723e+00 5.7616048328132905e+00 1 0 0
8720 2180 18 -1.0400000000000000e+00 7.8483316728905805e+00 2.3883194053818290e+01 1.0014438194706494e+00 1 0 1
6510 1628 17 5.2000000000000002e-01 1.9902547076501336e+00 3.5279841757663823e+00 1.9206047866479687e+00 1 1 0
6512 1628 18 -1.0400000000000000e+00 1.2984558653806635e+00 3.0672168532209128e+00 1.6521427656079770e+00 1 1 0
6897 1725 16 0.0000000000000000e+00 4.6571328991692260e+00 8.6546260409450380e+00 5.3059970609688616e+00 1 0 0
9676 2419 18 -1.0400000000000000e+00 2.4915193201572940e+01 1.9758238731478837e+01 3.7013197243468965e+00 1 0 0
6509 1628 16 0.0000000000000000e+00 1.2580447571898410e+00 2.9430146966031114e+00 1.7259052018426593e+00 1 1 0
7003 1751 17 5.2000000000000002e-01 2.4767710661224854e+01 6.8612108469229760e+00 6.0933140133841404e+00 0 1 0
4886 1222 17 5.2000000000000002e-01 5.4935650054039131e+00 1.1481236671390599e+01 6.9629378009606278e+00 0 1 1
9602 2401 17 5.2000000000000002e-01 2.2053455467938253e+01 5.4904759948713675e+00 5.9954065475664144e+00 -1 0 0
15466 3867 17 5.2000000000000002e-01 6.8116163584002836e+00 1.6101035982922124e+01 8.6202569729341227e-01 0 0 0
7345 1837 16 0.0000000000000000e+00 2.7397083092867347e-01 5.3125203364472249e+00 5.4823233419933901e+00 1 0 1
11104 2776 18 -1.0400000000000000e+00 2.4800567958039807e+01 1.8542923783644156e+01 6.3136113872538964e+00 0 1 0
3099 775 17 5.2000000000000002e-01 7.4720323810327489e+00 6.4475303690779260e+00 6.1186175079894412e+00 1 0 0
7348 1837 18 -1.0400000000000000e+00 1.8132371054520743e-01 5.4023201502720779e+00 5.4058212195413331e+00 1 0 1
6935 1734 17 5.2000000000000002e-01 5.7391790040083848e+00 5.8575349133909960e+00 7.4231300414767887e-01 0 1 1
15274 3819 17 5.2000000000000002e-01 1.6222298451351143e+00 7.6891877257391297e+00 1.9279598921980070e+00 0 0 1
8084 2021 18 -1.0400000000000000e+00 1.9825639180415486e+01 1.5681755471323163e+01 6.7453604917501995e+00 0 0 0
6317 1580 16 0.0000000000000000e+00 1.1788372156821612e+01 5.4359973106826698e-01 3.2740735165665420e+00 0 0 1
4370 1093 17 5.2000000000000002e-01 2.0218032234903205e+01 2.1003397897227025e+01 2.4107271837739424e+00 1 1 1
15276 3819 18 -1.0400000000000000e+00 1.6399700138448621e+00 8.0073975339821732e+00 1.1147000548490003e+00 0 0 1
1083 271 17 5.2000000000000002e-01 1.2537863494930676e+01 2.4893871991788266e+01 3.4360259753448945e+00 0 1 1
9643 2411 17 5.2000000000000002e-01 8.0672792067674912e+00 2.8142684465800425e+00 2.7146586889047315e+00 1 1 1
7647 1912 17 5.2000000000000002e-01 9.2543499373162224e+00 6.4730620220194162e+00 3.4307492697337416e+00 -1 0 0
7645 1912 16 0.0000000000000000e+00 1.0070310148646451e+01 5.9753521264029494e+00 3.3785698335045709e+00 -1 0 0
7646 1912 17 5.2000000000000002e-01 1.0403283845649259e+01 6.1519341546469422e+00 2.4986968842298798e+00 -1 0 0
15386 3847 17 5.2000000000000002e-01 1.4686096471652149e+01 4.3787756035261749e+00 1.2924345878853536e+00 -1 1 1
15385 3847 16 0.0000000000000000e+00 1.4068268482311554e+01 4.0835212518357213e+00 1.9612704038171789e+00 -1 1 1
15388 3847 18 -1.0400000000000000e+00 1.4201102760388046e+01 4.1500587390894328e+00 1.9819521040823578e+00 -1 1 1
15387 3847 17 5.2000000000000002e-01 1.4488106824753258e+01 4.3080414697892300e+00 2.7916648576792551e+00 -1 1 1
3730 933 17 5.2000000000000002e-01 1.2537839304522574e+01 3.2657293414398731e+00 5.7807321829725007e+00 0 1 1
3732 933 18 -1.0400000000000000e+00 1.2953688716893826e+01 3.9957616021444915e+00 6.0196613814327646e+00 0 1 1
15060 3765 18 -1.0400000000000000e+00 1.2788409674746624e+01 7.7646158372752065e+00 2.9652565610630246e+00 0 0 1
15057 3765 16 0.0000000000000000e+00 1.2848755847421289e+01 7.7278493068767276e+00 2.8329443990824474e+00 0 0 1
3729 933 16 0.0000000000000000e+00 1.3070023639226802e+01 3.9881631457245326e+00 6.1140461291614745e+00 0 1 1
15059 3765 17 5.2000000000000002e-01 1.2331713065594691e+01 8.5048636840042704e+00 3.0454180218784002e+00 0 0 1
7648 1912 18 -1.0400000000000000e+00 1.0008481718464104e+01 6.0616701556560111e+00 3.2726151050019014e+00 -1 0 0
14830 3708 17 5.2000000000000002e-01 1.2094916272499727e+01 6.8115071360557637e+00 4.3364285616277903e-01 -1 1 0
14829 3708 16 0.0000000000000000e+00 1.2251496234664856e+01 7.7013983654927767e+00 1.1772391649004277e-01 -1 1 0
14831 3708 17 5.2000000000000002e-01 1.2229119314342084e+01 8.2434426023385594e+00 9.0633989928816516e-01 -1 1 0
14832 3708 18 -1.0400000000000000e+00 1.2228587173754304e+01 7.6568699508714682e+00 2.5911773588996351e-01 -1 1 0
3528 882 18 -1.0400000000000000e+00 1.1081306531249187e+01 2.2551949525127064e+00 5.1797426781217855e+00 0 1 0
3525 882 16 0.0000000000000000e+00 1.1082299212235316e+01 2.3954189011027456e+00 5.1264859261718314e+00 0 1 0
15058 3765 17 5.2000000000000002e-01 1.2894393683138068e+01 7.2380419835422289e+00 3.6540622182922764e+00 0 0 1
8615 2154 17 5.2000000000000002e-01 9.9474934851232870e+00 4.1728081578770846e+00 3.1271423811183565e+00 0 0 2
8616 2154 18 -1.0400000000000000e+00 9.8555441049003853e+00 3.3066056209482952e+00 3.0623134108508747e+00 0 0 2
10543 2636 17 5.2000000000000002e-01 1.4209267525168283e+01 8.7952279132112139e+00 3.2548982309401442e+00 0 0 0
8613 2154 16 0.0000000000000000e+00 9.8023584431334765e+00 3.2462454787904487e+00 2.9357122173963659e+00 0 0 2
3731 933 17 5.2000000000000002e-01 1.2693431205609158e+01 4.7699526321202059e+00 5.7100510615628890e+00 0 1 1
10289 2573 16 0.0000000000000000e+00 2.2433020990593768e+01 2.3904791730643598e+01 2.9762658877285899e+00 1 1 0
4014 1004 17 5.2000000000000002e-01 1.5533729120740624e+01 1.1854838206391199e-01 1.7356794861720286e+00 0 0 -1
8098 2025 17 5.2000000000000002e-01 1.8684151365323917e+01 4.7149563256780880e-03 1.9091022942878055e+00 -1 0 0
8614 2154 17 5.2000000000000002e-01 1.0072692875612008e+01 2.7911998683124217e+00 3.7332597863559864e+00 0 0 2
4211 1053 17 5.2000000000000002e-01 2.1691611047001462e+01 1.3122628698781224e+01 6.0043316801624131e+00 0 1 0
1215 304 17 5.2000000000000002e-01 1.2231010509619479e+01 4.4995076226819641e+00 1.4701648658031492e+00 0 1 0
1216 304 18 -1.0400000000000000e+00 1.1405138592667672e+01 4.6204652931958456e+00 1.2127391673489809e+00 0 1 0
1213 304 16 0.0000000000000000e+00 1.1373394977611042e+01 4.7245544339342320e+00 1.1095025500445443e+00 0 1 0
1214 304 17 5.2000000000000002e-01 1.0763747957171935e+01 4.1364863545752666e+00 1.5553001706921441e+00 0 1 0
10542 2636 17 5.2000000000000002e-01 1.5200969364498743e+01 9.6763541939679278e+00 2.5254896330371679e+00 0 0 0
10541 2636 16 0.0000000000000000e+00 1.4916987646198907e+01 9.4223257260138205e+00 3.4035854914547454e+00 0 0 0
10544 2636 18 -1.0400000000000000e+00 1.4862743797736837e+01 9.3745682943856448e+00 3.2721452128895394e+00 0 0 0
2640 660 18 -1.0400000000000000e+00 1.5321550474045434e+01 4.3755380556410026e+00 4.4200646662409948e+00 0 1 1
2637 660 16 0.0000000000000000e+00 1.5312018096563067e+01 4.3255073259562771e+00 4.2789757741383090e+00 0 1 1
2458 615 17 5.2000000000000002e-01 3.2796009969357796e+00 3.6246295450788990e-01 2.2546288702601851e+00 0 1 0
3527 882 17 5.2000000000000002e-01 1.1443132613954967e+01 1.6099629386491348e+00 4.7152844683464714e+00 0 1 0
3526 882 17 5.2000000000000002e-01 1.0713706842363512e+01 2.0854837581126553e+00 5.9537148045163990e+00 0 1 0
15178 3795 17 5.2000000000000002e-01 1.9086504588237268e+01 1.2549611275453973e+01 6.9354186061925853e+00 0 0 0
8717 2180 16 0.0000000000000000e+00 7.9302046950718310e+00 2.3988006398161414e+01 9.3208068855657011e-01 1 0 1
10607 2652 17 5.2000000000000002e-01 2.2509193429815748e+00 2.8885045443060714e-01 7.1337544280890153e-01 -1 0 1
5854 1464 17 5.2000000000000002e-01 1.5789541535760868e+01 5.8602548184569807e+00 5.6860315724282617e-01 0 -1 0
4946 1237 17 5.2000000000000002e-01 1.7086776962416575e+01 5.9968447292631879e+00 2.6804945496039876e+00 1 1 1
2638 660 17 5.2000000000000002e-01 1.6004359863454592e+01 4.8622186085585533e+00 4.6647627374309799e+00 0 1 1
5998 1500 17 5.2000000000000002e-01 1.6795713404085618e+01 7.7800017896429807e+00 4.0132234812813534e+00 0 1 1
11661 2916 16 0.0000000000000000e+00 8.5793138342748989e+00 9.4395535341434815e+00 4.2433529442491098e+00 0 0 1
11664 2916 18 -1.0400000000000000e+00 8.6516989597755298e+00 9.3523019297595802e+00 4.1451313962075398e+00 0 0 1
11662 2916 17 5.2000000000000002e-01 8.2114205778290028e+00 8.7519373554622284e+00 3.6883152868474181e+00 0 0 1
2639 660 17 5.2000000000000002e-01 1.4694138383713209e+01 4.1796261700252000e+00 4.9953354105196750e+00 0 1 1
10740 2685 18 -1.0400000000000000e+00 1.2046859810902623e+01 6.3786333708731027e+00 5.1000031967027910e+00 0 1 0
10737 2685 16 0.0000000000000000e+00 1.2187128655346273e+01 6.3255699761925772e+00 5.0970057970927449e+00 0 1 0
10738 2685 17 5.2000000000000002e-01 1.1433073939697461e+01 6.0168283750789904e+00 4.5947025762911684e+00 0 1 0
10317 2580 16 0.0000000000000000e+00 1.4938933987072808e+01 1.0831669508396153e+00 5.8276644137688987e+00 0 1 -1
10320 2580 18 -1.0400000000000000e+00 1.5026165997977525e+01 1.1221121137782750e+00 5.9433101448539709e+00 0 1 -1
15944 3986 18 -1.0400000000000000e+00 2.1677912286148171e+01 1.8042737334775747e+01 1.2030107002752044e+00 0 0 0
14169 3543 16 0.0000000000000000e+00 2.4135553187221216e+01 1.5368961917993284e+01 6.9361170123492544e+00 -1 0 1
10338 2585 17 5.2000000000000002e-01 2.3066589132596910e+01 2.0572990011968358e+01 1.9817188434303683e+00 -1 0 0
10802 2701 17 5.2000000000000002e-01 1.7909991198575003e+01 6.4406509167968040e-01 6.8516212681172100e+00 0 0 0
12267 3067 17 5.2000000000000002e-01 1.4539951444950111e+01 1.9769438424168531e+00 1.0632368704497426e+00 0 0 0
7004 1751 18 -1.0400000000000000e+00 2.4951352590132728e+01 6.3852792536570000e+00 5.3842810872924378e+00 0 1 0
16242 4061 17 5.2000000000000002e-01 2.3251563358870882e+01 3.7289631243427324e+00 8.0387837756024838e-01 0 1 1
16244 4061 18 -1.0400000000000000e+00 2.3652649229923046e+01 2.9634927001303990e+00 9.3096340917106646e-01 0 1 1
13362 3341 17 5.2000000000000002e-01 1.0500302296930775e-01 8.2980434505594083e+00 6.0658640095404550e+00 0 1 0
1991 498 17 5.2000000000000002e-01 2.2969861427110548e+01 3.1590746043579165e+00 2.6481759066990191e+00 0 0 2
8099 2025 17 5.2000000000000002e-01 1.8951653023939183e+01 1.4947897357238187e+00 1.9053956189787007e+00 -1 0 0
548 137 18 -1.0400000000000000e+00 2.0281527718603044e+01 3.0952916172505214e+00 4.3948077275617159e+00 0 0 -1
4945 1237 16 0.0000000000000000e+00 1.7321023557769145e+01 5.7184980087890613e+00 1.7951243514739437e+00 1 1 1
4948 1237 18 -1.0400000000000000e+00 1.7412443393634501e+01 5.7380265750000374e+00 1.9124325179292863e+00 1 1 1
8576 2144 18 -1.0400000000000000e+00 1.9815280141917931e+01 4.7371501840392884e+00 2.3184310877217391e+00 0 1 0
8573 2144 16 0.0000000000000000e+00 1.9684255942200579e+01 4.7955499090877360e+00 2.2745894230557093e+00 0 1 0
8574 2144 17 5.2000000000000002e-01 1.9839275399895982e+01 4.1694673979202328e+00 2.9818499766000430e+00 0 1 0
7405 1852 16 0.0000000000000000e+00 1.8365632120386937e+01 2.8020767446871608e+00 4.9702524464928788e-01 0 -1 1
7408 1852 18 -1.0400000000000000e+00 1.8256060535155665e+01 2.9025232350334367e+00 4.7690678745172177e-01 0 -1 1
13522 3381 17 5.2000000000000002e-01 1.6835914092943092e+01 2.9963944562747251e+00 4.1602142739607331e+00 0 0 0
13524 3381 18 -1.0400000000000000e+00 1.7430143174303474e+01 2.3668424976140434e+00 4.0439326269723965e+00 0 0 0
13521 3381 16 0.0000000000000000e+00 1.7576309748168885e+01 2.3992564448435343e+00 4.0531224386928670e+00 0 0 0
4947 1237 17 5.2000000000000002e-01 1.8269412632957771e+01 5.5927018070472911e+00 1.8261330778103599e+00 1 1 1
3726 932 17 5.2000000000000002e-01 2.2241755410635506e+01 5.6714761367307629e+00 3.3709631270423546e-01 -1 1 0
13523 3381 17 5.2000000000000002e-01 1.7174886649986018e+01 1.5489103544871734e+00 3.8742399427739294e+00 0 0 0
8575 2144 17 5.2000000000000002e-01 2.0552763139519591e+01 4.9654270282010362e+00 1.9098072726266535e+00 0 1 0
7406 1852 17 5.2000000000000002e-01 1.8116850374192602e+01 3.5217783130747660e+00 1.0769960199341024e+00 0 -1 1
7824 1956 18 -1.0400000000000000e+00 2.4922896886137618e+01 1.2349943819653538e+01 5.1499063361265236e+00 0 1 0
545 137 16 0.0000000000000000e+00 2.0310869844839374e+01 3.2419137561585654e+00 4.4066749913129355e+00 0 0 -1
547 137 17 5.2000000000000002e-01 2.0934938014654762e+01 2.5163147206014207e+00 4.4231959044224274e+00 0 0 -1
9603 2401 17 5.2000000000000002e-01 2.1846294016808066e+01 4.3672093834920949e+00 5.0018025122706664e+00 -1 0 0
9601 2401 16 0.0000000000000000e+00 2.2230290627661908e+01 5.2396881298772415e+00 5.0887289674376603e+00 -1 0 0
9604 2401 18 -1.0400000000000000e+00 2.2158497150507937e+01 5.1601031294269797e+00 5.1936676834697932e+00 -1 0 0
3728 932 18 -1.0400000000000000e+00 2.2312736104431853e+01 5.5202070353423336e+00 1.1944431498027968e+00 -1 1 0
3725 932 16 0.0000000000000000e+00 2.2373790904542570e+01 5.3921063652998775e+00 1.2430475713516702e+00 -1 1 0
546 137 17 5.2000000000000002e-01 1.9457591355067034e+01 2.8221362880923389e+00 4.2974497332272232e+00 0 0 -1
1992 498 18 -1.0400000000000000e+00 2.2920243301097145e+01 2.6563427247297806e+00 3.3607510746472427e+00 0 0 2
11383 2846 17 5.2000000000000002e-01 5.4478658415399250e+00 1.3540442733232085e+01 7.1954937855336776e-01 1 0 1
9673 2419 16 0.0000000000000000e+00 2.4815609910524763e+01 1.9746878941098743e+01 3.5897218972508891e+00 1 0 0
7002 1751 17 5.2000000000000002e-01 2.4305005530487513e+01 6.0507425908864283e+00 4.9012834421054494e+00 0 1 0
1989 498 16 0.0000000000000000e+00 2.2787738993631557e+01 2.6012240477967037e+00 3.4043911515744294e+00 0 0 2
12265 3067 16 0.0000000000000000e+00 1.4265305268029479e+01 1.0749861418465303e+00 8.9809949389478905e-01 0 0 0
8503 2126 17 5.2000000000000002e-01 6.1141776246304875e+00 8.6645385337526160e-01 1.5396730084541510e-01 1 1 -1
16243 4061 17 5.2000000000000002e-01 2.4395762799635360e+01 2.9285371709674797e+00 1.3887018680833156e+00 0 1 1
13874 3469 17 5.2000000000000002e-01 1.8525972803565736e+01 5.2732137918082751e+00 5.7901170308600802e+00 -1 1 1
1052 263 18 -1.0400000000000000e+00 1.9713693159131928e+01 6.2106491806436228e+00 4.9285459644836802e+00 0 0 0
13875 3469 17 5.2000000000000002e-01 1.8056572573495540e+01 3.9493115087187274e+00 6.3547748267689679e+00 -1 1 1
13876 3469 18 -1.0400000000000000e+00 1.7909039525546397e+01 4.7919838306048126e+00 6.1784146560149127e+00 -1 1 1
16241 4061 16 0.0000000000000000e+00 2.3593798102619779e+01 2.8377968880989850e+00 8.7406902492359839e-01 0 1 1
749 188 16 0.0000000000000000e+00 7.1752270433905230e-01 1.1528226280680956e+01 1.8626881193552591e+00 1 0 1
8100 2025 18 -1.0400000000000000e+00 1.9120715086953926e+01 6.9615956185858674e-01 2.2161560759804080e+00 -1 0 0
12268 3067 18 -1.0400000000000000e+00 1.4307547822758092e+01 1.1779681128233315e+00 7.9754965963957813e-01 0 0 0
3727 932 17 5.2000000000000002e-01 2.2028881573230276e+01 6.1134290821088637e+00 1.7693173915983929e+00 -1 1 0
4267 1067 17 5.2000000000000002e-01 2.4155305957660108e+01 9.2173139865092217e+00 3.8702633233766526e+00 0 1 0
7750 1938 17 5.2000000000000002e-01 1.9283989290698280e+01 1.0276672705144451e+01 2.6629028005517741e+00 0 2 0
4268 1067 18 -1.0400000000000000e+00 2.4866312353435333e+01 9.5754700325169324e+00 3.5108776053305650e+00 0 1 0
3984 996 18 -1.0400000000000000e+00 1.9089651075080447e+01 2.3862223029668077e+00 6.9173125099031454e+00 0 -1 1
13873 3469 16 0.0000000000000000e+00 1.7777501877129986e+01 4.8541752677580323e+00 6.2148825641929335e+00 -1 1 1
1990 498 17 5.2000000000000002e-01 2.3640704555321079e+01 2.4739486540260529e+00 3.8196984597428987e+00 0 0 2
10606 2652 17 5.2000000000000002e-01 1.6461391859662677e+00 1.6254056993555359e+00 3.3953809770979221e-01 -1 0 1
3983 996 17 5.2000000000000002e-01 1.9567663612592174e+01 2.7479295426202026e+00 6.2819889720784907e+00 0 -1 1
3981 996 16 0.0000000000000000e+00 1.8944131924606694e+01 2.3578191478880357e+00 6.8945655368963328e+00 0 -1 1
7722 1931 17 5.2000000000000002e-01 4.4586029350559553e-01 1.6838367379614523e+00 4.5888472815348500e+00 0 0 1
1982 496 17 5.2000000000000002e-01 9.2412364694996345e+00 1.8594238271589536e+01 2.9678841120408916e-02 0 0 1
6898 1725 17 5.2000000000000002e-01 4.7247700030181292e+00 9.3718263107230477e+00 4.6756970879069923e+00 1 0 0
6441 1611 16 0.0000000000000000e+00 5.8916195629391526e+00 9.0950643022990718e+00 1.1953699996494753e+00 0 0 0
6444 1611 18 -1.0400000000000000e+00 5.9167123506259767e+00 9.0658978337610652e+00 1.0503887311209890e+00 0 0 0
6933 1734 16 0.0000000000000000e+00 5.0196962811862607e+00 6.3431247102483006e+00 3.3885695454725689e-01 0 1 1
6443 1611 17 5.2000000000000002e-01 6.4211013863264954e+00 9.6010619681774241e+00 5.7905501022506078e-01 0 0 0
12610 3153 17 5.2000000000000002e-01 2.7455044780442650e+00 1.5042608718387426e+01 5.7356425000269704e+00 1 1 0
6320 1580 18 -1.0400000000000000e+00 1.1937400564998859e+01 5.5124151980385883e-01 3.2588291518679831e+00 0 0 1
5996 1499 18 -1.0400000000000000e+00 1.6844790241527166e+00 9.7189927683017618e+00 5.5998676884584775e+00 0 1 0
5993 1499 16 0.0000000000000000e+00 1.6569636803366943e+00 9.6070448194567515e+00 5.6958397162535137e+00 0 1 0
15938 3985 17 5.2000000000000002e-01 2.7844677045275801e+00 9.1346268189553879e+00 1.8628369704434062e+00 0 1 0
15937 3985 16 0.0000000000000000e+00 3.3886034784537102e+00 9.7554235853049409e+00 2.2700961381424891e+00 0 1 0
15940 3985 18 -1.0400000000000000e+00 3.4169058680730577e+00 9.6598574005599414e+00 2.1579973427158432e+00 0 1 0
8316 2079 18 -1.0400000000000000e+00 1.1589998860074797e+00 1.4027898146165807e+01 1.0127626444118301e+00 0 0 1
5994 1499 17 5.2000000000000002e-01 2.4966182199796072e+00 1.0028408808551241e+01 5.5123710551098100e+00 0 1 0
11501 2876 16 0.0000000000000000e+00 7.3797068481607830e+00 1.2209312188883739e+01 4.0264353165388780e+00 2 0 0
11504 2876 18 -1.0400000000000000e+00 7.4596101086697173e+00 1.2178850592092321e+01 4.1496733381634909e+00 2 0 0
11502 2876 17 5.2000000000000002e-01 7.5872892187487011e+00 1.2799542623382644e+01 4.7508424365141746e+00 2 0 0
8866 2217 17 5.2000000000000002e-01 2.9279778192712511e+00 1.4662754139022994e+01 2.0602344188815889e+00 1 0 1
15939 3985 17 5.2000000000000002e-01 4.2138284504411931e+00 9.6296809276708828e+00 1.8016716937539465e+00 0 1 0
8595 2149 17 5.2000000000000002e-01 3.7215575077577610e+00 1.1638030330285783e+01 4.2920472766379572e+00 0 1 1
8596 2149 18 -1.0400000000000000e+00 3.9669131905950992e+00 1.1887366215099632e+01 5.0924206882996659e+00 0 1 1
8868 2217 18 -1.0400000000000000e+00 3.5878326280721367e+00 1.4485959838845599e+01 2.6045692156304563e+00 1 0 1
8313 2079 16 0.0000000000000000e+00 1.1238502940419661e+00 1.4149579053694925e+01 1.0931253081153964e+00 0 0 1
8865 2217 16 0.0000000000000000e+00 3.6233031097271216e+00 1.4583090762166382e+01 2.7132312387434001e+00 1 0 1
8867 2217 17 5.2000000000000002e-01 4.0415396466588245e+00 1.3744667240478513e+01 2.5173887972853066e+00 1 0 1
9308 2327 18 -1.0400000000000000e+00 5.2072777829784016e+00 1.2164858179625410e+01 2.3427379068994814e+00 1 0 2
9305 2327 16 0.0000000000000000e+00 5.0828675629537843e+00 1.2248521843678695e+01 2.3474539264729288e+00 1 0 2
9307 2327 17 5.2000000000000002e-01 5.8857067040510191e+00 1.2363296759303937e+01 2.8558863816987481e+00 1 0 2
9306 2327 17 5.2000000000000002e-01 5.2518948588665548e+00 1.1480189133420968e+01 1.8021809476037045e+00 1 0 2
8593 2149 16 0.0000000000000000e+00 4.0417746182351282e+00 1.1792090333936578e+01 5.1808413432243716e+00 0 1 1
8594 2149 17 5.2000000000000002e-01 3.7771938637730136e+00 1.2690418635242997e+01 5.3789131499379153e+00 0 1 1
11503 2876 17 5.2000000000000002e-01 7.7963023949221313e+00 1.1381126698880264e+01 4.2647326348429093e+00 2 0 0
10909 2728 16 0.0000000000000000e+00 1.4590043593416727e+01 2.2978830950505955e+01 6.0124217576860040e-02 0 0 0
10705 2677 16 0.0000000000000000e+00 5.3688224724824831e+00 1.5937029901608419e+01 7.1259057489594415e+00 1 0 0
10706 2677 17 5.2000000000000002e-01 4.6912061875534361e+00 1.5283077269657259e+01 6.9544113102957068e+00 1 0 0
11023 2756 17 5.2000000000000002e-01 8.4251213292564735e+00 1.5082272719878315e+01 4.8491003980212373e+00 0 -1 1
11021 2756 16 0.0000000000000000e+00 8.9829424626395316e+00 1.4511785707489919e+01 5.3778799770930927e+00 0 -1 1
8314 2079 17 5.2000000000000002e-01 9.7152296662154314e-01 1.3232568891794614e+01 1.3214172423046657e+00 0 0 1
11024 2756 18 -1.0400000000000000e+00 9.0203050844342112e+00 1.4587380674156259e+01 5.2538262313078787e+00 0 -1 1
12609 3153 16 0.0000000000000000e+00 3.5176277442115231e+00 1.4512901989281406e+01 5.5369845733795229e+00 1 1 0
14807 3702 17 5.2000000000000002e-01 6.4358633743566847e+00 1.5992296412123380e+01 5.5941829336244364e+00 0 1 0
12612 3153 18 -1.0400000000000000e+00 3.4405117193683039e+00 1.4601418049330752e+01 5.4436141688408419e+00 1 1 0
12611 3153 17 5.2000000000000002e-01 3.6873439915818231e+00 1.4674663309403948e+01 4.6089446087677537e+00 1 1 0
751 188 17 5.2000000000000002e-01 4.3813946291100186e-01 1.0848826634493832e+01 1.2490198479151351e+00 1 0 1
2094 524 17 5.2000000000000002e-01 2.4668515300260939e+01 2.1930126350315930e+01 6.0008476043399863e+00 1 1 0
8083 2021 17 5.2000000000000002e-01 2.0553445629485871e+01 1.6023396487692949e+01 7.0867448106788853e+00 0 0 0
14805 3702 16 0.0000000000000000e+00 6.7787409177712190e+00 1.6421708416938618e+01 4.8104306459334669e+00 0 1 0
14808 3702 18 -1.0400000000000000e+00 6.7263398536739993e+00 1.6486519701827849e+01 4.9351451996210471e+00 0 1 0
3076 769 18 -1.0400000000000000e+00 5.6635787193798626e+00 1.6015024970485602e+01 2.5587521968442544e+00 0 1 0
3073 769 16 0.0000000000000000e+00 5.7297227439715019e+00 1.6050522638926626e+01 2.4288864284520923e+00 0 1 0
3074 769 17 5.2000000000000002e-01 6.0294901425917189e+00 1.6255920341554255e+01 3.3144256449091536e+00 0 1 0
3075 769 17 5.2000000000000002e-01 4.9132583393635674e+00 1.5567830640124445e+01 2.5578195647909610e+00 0 1 0
8315 2079 17 5.2000000000000002e-01 1.5507621276453636e+00 1.4116050554176384e+01 2.3705841487761914e-01 0 0 1
11360 2840 18 -1.0400000000000000e+00 1.7647581033664952e+01 2.0460195265200596e+01 4.4904382943805976e-01 0 0 0
6276 1569 18 -1.0400000000000000e+00 8.8019344930285848e-01 1.5048689260281284e+01 6.6209967543174351e+00 0 0 1
10318 2580 17 5.2000000000000002e-01 1.5765185894246160e+01 6.8328490253283525e-01 6.0990135464825066e+00 0 1 -1
10912 2728 18 -1.0400000000000000e+00 1.4505169003693053e+01 2.2945753192712449e+01 1.7929697957216562e-01 0 0 0
1063 266 17 5.2000000000000002e-01 1.9267819272240427e-01 2.4981661428745443e+01 3.2288872098930343e+00 1 -1 0
5995 1499 17 5.2000000000000002e-01 1.0322508716178813e+00 1.0060190263370945e+01 5.1296044322850030e+00 0 1 0