LAMMPS data file via write_data, version 16 Mar 2018, timestep = 1000000

188 atoms
49 atom types
213 bonds
39 bond types
391 angles
122 angle types
613 dihedrals
187 dihedral types
76 impropers
5 improper types

-5.0000000000000000e+01 5.0000000000000000e+01 xlo xhi
-5.0000000000000000e+01 5.0000000000000000e+01 ylo yhi
-5.0000000000000000e+01 5.0000000000000000e+01 zlo zhi

Masses

1 1.008
2 15.999
3 12.011
4 12.011
5 12.011
6 12.011
7 12.011
8 1.008
9 12.011
10 12.011
11 12.011
12 1.008
13 12.011
14 12.011
15 1.008
16 12.011
17 15.999
18 14.007
19 14.007
20 14.007
21 1.008
22 1.008
23 12.011
24 15.999
25 15.999
26 1.008
27 12.011
28 15.999
29 12.011
30 12.011
31 12.011
32 12.011
33 12.011
34 14.007
35 12.011
36 12.011
37 12.011
38 12.011
39 1.008
40 12.011
41 15.999
42 1.008
43 12.011
44 15.999
45 14.007
46 12.011
47 12.011
48 22.99
49 35.453

Pair Coeffs # lj/cut/coul/long

1 0 0
2 0.1554 3.16557
3 0.066 3.5
4 0.066 3.5
5 0.066 3.5
6 0.066 3.5
7 0.066 3.5
8 0.03 2.5
9 0.076 3.55
10 0.076 3.55
11 0.076 3.55
12 0.03 2.42
13 0.07 3.55
14 0.07 3.55
15 0.03 2.42
16 0.105 3.75
17 0.21 2.96
18 0.17 3.25
19 0.17 3.25
20 0.17 3.25
21 0 0
22 0 0
23 0.105 3.75
24 0.21 2.96
25 0.17 3
26 0 0
27 0.105 3.75
28 0.21 2.96
29 0.066 3.5
30 0.066 3.5
31 0.066 3.5
32 0.066 3.5
33 0.076 3.55
34 0.17 3.25
35 0.066 3.5
36 0.066 3.5
37 0.066 3.5
38 0.066 3.5
39 0.03 2.5
40 0.07 3.55
41 0.17 3.07
42 0 0
43 0.105 3.75
44 0.21 2.96
45 0.17 3.25
46 0.07 3.55
47 0.07 3.55
48 0.0005 4.07
49 0.71 4.02

Bond Coeffs # harmonic

1 350 1.51
2 570 1.229
3 450 1.364
4 317 1.522
5 300 1.79
6 490 1.335
7 340 1.09
8 410 1.444
9 400 1.49
10 656 1.25
11 457 1.358
12 553 0.945
13 320 1.41
14 400 1.38
15 450 1.37
16 450 1.364
17 268 1.529
18 245 1.781
19 337 1.449
20 340 1.09
21 317 1.51
22 317 1.51
23 367 1.471
24 337 1.449
25 300 1.725
26 300 1.725
27 434 1.01
28 427 1.381
29 600 1
30 434 1.01
31 434 1.01
32 340 1.08
33 549 1.34
34 427 1.433
35 469 1.4
36 367 1.08
37 400 1.45
38 483 1.339
39 500 1.32

Angle Coeffs # harmonic

1 80 121.4
2 80 126
3 80 121
4 70 108
5 70 116
6 80 117.2
7 80 120.4
8 75 109
9 75 119
10 70 114.2
11 70 116.6
12 70 116.6
13 80 122.9
14 35 115
15 35 115
16 35 123
17 40 114
18 40 115
19 70 115.5
20 80 125.3
21 35 115
22 70 115.5
23 70 116
24 70 120
25 80 120.4
26 85 120
27 70 117
28 70 117
29 80 126
30 80 126
31 35 122
32 80 122.5
33 35 113
34 55 108.5
35 49 105.4
36 35 109
37 35 113
38 63 111.1
39 50 109.5
40 58.35 112.7
41 63 111.1
42 69 109.8
43 69 109.8
44 78 111.7
45 63 110.1
46 80 109.7
47 33 107.8
48 35 109.5
49 35 109.5
50 35 109.5
51 37.5 110.7
52 51 107.6
53 35 109.5
54 63 111.1
55 63 112.4
56 35 109.5
57 40 109.5
58 40 109.5
59 50 109.5
60 63 112
61 63 114
62 35 109.5
63 80 111.2
64 80 111.2
65 35 109.5
66 63 110.1
67 65 109
68 70 126.4
69 46 115.7
70 50 118
71 50 121.9
72 35 110.2
73 35 119.8
74 35 120
75 38 118.4
76 35 119.8
77 50 118
78 50 121.9
79 70 118
80 75 109.47
81 70 119.7
82 70 130
83 35 117
84 35 117
85 35 119.7
86 60 114
87 35 120
88 70 123
89 70 124
90 75 121.5
91 85 120.7
92 35 123.3
93 85 117
94 85 119.7
95 70 119.7
96 63 120
97 70 120
98 70 120
99 70 120
100 70 124
101 75 120
102 85 120
103 35 119.1
104 35 120
105 35 120
106 70 120
107 35 116
108 70 116
109 70 120
110 70 121.5
111 70 124
112 75 120
113 50 113
114 43.6 109.5
115 55 114
116 70 120.5
117 35 113
118 50 118
119 70 117
120 70 120.5
121 70 117
122 70 117

Dihedral Coeffs # opls

1 1.6 3.2 0 0
2 0 0.5 0 0
3 0 0 0 0
4 0 0 0 0
5 0.7 -1.5 0 0
6 -0.5 0.2 0 0
7 0.8 -0.76 0 0
8 -0.9 0.3 0 0
9 0 0 0.3 0
10 3 5.5 0 0
11 0 5 0 0
12 1.5 5.5 0 0
13 -2 5 0 0
14 1.5 5.5 0 0
15 4 5 0 0
16 0 0 0.085 0
17 0 0 0 0
18 0 0 0 0
19 -0.65 0 0 0
20 0 0 0 0
21 0 0 0 0
22 0 0.546 0 0
23 0 1.412 0 0
24 0 0 0 0
25 1.454 -0.144 -0.775 0
26 0 0 0.275 0
27 0 0 0 0
28 0 0 0.36 0
29 1.173 0.189 -1.2 0
30 0.65 0 0 0
31 1.816 1.222 1.581 0
32 0 0 0 0
33 0 0 0 0
34 0 0 0.36 0
35 0 0 0.275 0
36 0 0.82 0 0
37 0 0 0 0
38 0.4 4.9 0 0
39 0 4.9 0 0
40 0 6.603 0 0
41 0 6.089 0 0
42 0 4.9 0 0
43 0 6.089 0 0
44 0 6.089 0 0
45 2.3 6.089 0 0
46 0 4.9 0 0
47 4.542 6.603 1.045 0
48 2.3 6.089 0 0
49 0 4.9 0 0
50 2.3 6.089 0 0
51 2.3 6.089 0 0
52 4.6 0 0 0
53 0 4.9 0 0
54 2.3 6.089 0 0
55 0 4.9 0 0
56 0 4.9 0 0
57 0 4.9 0 0
58 2.3 6.089 0 0
59 0.9 0.23 -0.505 0
60 0 0 0 0
61 2.5 6 0 0
62 3.2 -3 0 0
63 0 0 0 0
64 2 0 0 0
65 0 2.1 0 0
66 0 2.1 0 0
67 0 0.2 0 0
68 0 1.1 0 0
69 0 0.2 0 0
70 0 14 0 0
71 0 14 0 0
72 0 14 0 0
73 0 14 0 0
74 -0.356 -0.174 0.492 0
75 0 0 0.352 0
76 -0.9 0 0 0
77 -0.9 0 0 0
78 5.519 -6.7 0.581 0
79 2.722 -5.154 0 0
80 0 1.682 0 0
81 0 1.682 0 0
82 3 3 0 0
83 -4.344 -1.714 0 0
84 1.711 -0.5 0.663 0
85 1.428 0.086 0.029 0
86 -0.55 0 1 0
87 -6.18 0 0 0
88 -2.06 -0.313 0.315 0
89 -9 2 0.8 0
90 0 0 -0.1 0
91 -1.697 -0.456 0.585 0
92 9.508 0 0 0
93 -1.552 0 0 0
94 6.28 -1.467 2.03 0
95 0 0 0.468 0
96 1.3 -0.05 0.2 0
97 0 0 0.4 0
98 0.845 -0.962 0.713 0
99 0 0 0.3 0
100 2.732 -0.229 0.485 0
101 -0.25 0 0 0
102 0 0 0.4 0
103 0 0 0.464 0
104 0.845 -0.962 0.713 0
105 0 0 0.3 0
106 0 0 0.366 0
107 0 0 0.462 0
108 0 0 0.384 0
109 1 0 0 0
110 0 0 0 0
111 -2.365 0.912 -0.85 0
112 -1.737 1.251 -3.501 0
113 0 0 0 0
114 0 0.462 0 0
115 4.753 -0.734 0 0
116 0 0 0 0
117 0 0 0 0
118 0 0 0 0
119 0 0 0 0
120 0 0 0 0
121 1.711 -0.5 0.663 0
122 0 0 0.468 0
123 0.5 0 0 0
124 2.817 -0.169 0.543 0
125 0.346 0.405 -0.904 0
126 0 0 0.3 0
127 0 0 0.318 0
128 0 0 -0.372 0
129 0 -8 0 0
130 0 -8 0 0
131 0 0 0 0
132 0 0 0 0
133 -0.5 0.5 -0.5 0
134 0 -0.4 0 0
135 0 0 0 0
136 1.438 -0.124 0.264 0
137 0 0 0.347 0
138 0 0 0.302 0
139 0 0 0.261 0
140 0 0 0.462 0
141 0 2.1 0 0
142 0 2.1 0 0
143 0 2.1 0 0
144 0 2.1 0 0
145 0 -8 0 0
146 0 -8 0 0
147 0 14 0 0
148 0 14 0 0
149 0 14 0 0
150 0 14 0 0
151 0 14 0 0
152 0 14 0 0
153 0 14 0 0
154 -1.6 14 0 0
155 0 14 0 0
156 0 14 0 0
157 0 14 0 0
158 0.205 -0.531 0 0
159 0 0 -0.372 0
160 0 0 -0.372 0
161 1.241 3.353 -0.286 0
162 0 7.25 0 0
163 0 7.25 0 0
164 0 7.25 0 0
165 0 7.25 0 0
166 0 7.25 0 0
167 0 7.25 0 0
168 0 7.25 0 0
169 0 7.25 0 0
170 0 7.25 0 0
171 0 7.25 0 0
172 0 7.25 0 0
173 0 7.25 0 0
174 0 7.25 0 0
175 0 0 0 0
176 0 7.25 0 0
177 0 7.25 0 0
178 0 7.25 0 0
179 0 7.25 0 0
180 0 7.25 0 0
181 0 7.25 0 0
182 1.816 1.222 1.581 0
183 0 0.82 0 0
184 1 0 0 0
185 6.28 -1.467 2.03 0
186 1.438 -0.124 0.264 0
187 1.3 -0.05 0.2 0

Improper Coeffs # harmonic

1 10.5 0
2 10.5 0
3 1 0
4 15 0
5 1.1 0

Atoms # full

102 1 43 4.6999999999999997e-01 -3.7839821816828811e+00 -4.9696608149827712e+00 -2.9056438844341087e-02 0 0 0
103 1 4 -1.2000000000000000e-01 -5.6334137034796363e+00 -6.8243558030704001e+00 -8.3329728839123179e-02 0 0 0
180 1 8 5.9999999999999998e-02 -1.7688386291716809e+00 -2.8090653361849499e-01 -3.2552739007988257e-01 0 0 0
126 1 8 5.9999999999999998e-02 -8.0638599290605555e+00 -8.2365812478090454e+00 -6.1944716498365793e-01 0 0 0
124 1 8 5.9999999999999998e-02 -8.0079082015912828e+00 -1.0414791662273513e+01 -2.3958147293563378e-01 0 0 0
116 1 8 5.9999999999999998e-02 -5.5818925115557763e+00 -6.7294027342727381e+00 -1.1788371353172451e+00 0 0 0
112 1 41 -5.8499999999999996e-01 -3.0678230099536368e+00 -2.2775784362673024e+00 -4.4696579858635871e-02 0 0 0
128 1 42 4.3500000000000000e-01 -3.8028689558121735e+00 -2.6149919990413948e+00 -4.6008802607721871e-01 0 0 0
114 1 44 -4.6999999999999997e-01 -4.3895596755770434e+00 -4.3654386991919569e+00 -9.3099292849126436e-01 0 0 0
121 1 8 5.9999999999999998e-02 -7.2871183311952681e+00 -9.6520035907254620e+00 2.6171553931613056e+00 0 0 0
125 1 8 5.9999999999999998e-02 -8.1141888510817370e+00 -7.7423552274088303e+00 1.0723908468815946e+00 0 0 0
107 1 4 -1.2000000000000000e-01 -5.6782460558360821e+00 -1.0424007650035048e+01 1.3005507883818082e+00 0 0 0
118 1 8 5.9999999999999998e-02 -3.4691231966684302e+00 -8.9395469478995881e+00 2.0092779516109758e+00 0 0 0
120 1 8 5.9999999999999998e-02 -5.0042692429263402e+00 -1.0648233016693366e+01 2.1327091515012397e+00 0 0 0
108 1 4 -1.2000000000000000e-01 -7.1963036646853800e+00 -1.0421912897057570e+01 1.8282576683095828e+00 0 0 0
106 1 4 -1.2000000000000000e-01 -3.8165951362328210e+00 -8.7526263859854243e+00 9.9128948442646947e-01 0 0 0
105 1 9 0.0000000000000000e+00 -5.2673708879418859e+00 -9.0898093498369956e+00 7.9119107743942518e-01 0 0 0
99 1 43 4.6999999999999997e-01 -1.9093662204371111e+00 -6.9053354680885040e+00 1.0429766842442887e+00 0 0 0
101 1 14 0.0000000000000000e+00 -4.2288437902904192e+00 -6.3555542591797920e+00 3.5270940047628163e-01 0 0 0
40 1 6 0.0000000000000000e+00 -2.8387382484774182e-01 -1.1847740885323004e+00 9.4010230776843162e-01 0 0 0
98 1 40 1.4999999999999999e-01 -2.1870426785985250e-01 -4.9729922587526136e+00 1.3921980672850092e+00 0 0 0
94 1 14 0.0000000000000000e+00 -8.3936107211730437e-01 -2.6097672212996783e+00 8.7809323003889306e-01 0 0 0
97 1 14 0.0000000000000000e+00 -1.5425841249147727e+00 -5.4053116275565900e+00 1.0551027409173830e+00 0 0 0
182 1 8 5.9999999999999998e-02 -2.2377627612375992e+00 -3.0588011026028561e-01 1.1986701050640429e+00 0 0 0
100 1 14 0.0000000000000000e+00 -3.3495437293894099e+00 -7.3082260526603777e+00 7.9597689155557994e-01 0 0 0
113 1 44 -4.6999999999999997e-01 -1.0076031982783016e+00 -7.7181325154483966e+00 1.2916350456179484e+00 0 0 0
104 1 9 0.0000000000000000e+00 -6.1327195095049420e+00 -8.1798804865372148e+00 3.4494857937659895e-01 0 0 0
122 1 8 5.9999999999999998e-02 -7.5070932132229977e+00 -1.1404788607720192e+01 2.1592892957236316e+00 0 0 0
119 1 8 5.9999999999999998e-02 -5.5173664916723713e+00 -1.1179086087260369e+01 4.9210814616519483e-01 0 0 0
96 1 14 0.0000000000000000e+00 -2.5281114978540220e+00 -4.4644939418128633e+00 6.1756978995127065e-01 0 0 0
109 1 4 -1.2000000000000000e-01 -8.0646017132187851e+00 -9.8649536394478421e+00 7.1185478479828646e-01 0 0 0
123 1 8 5.9999999999999998e-02 -9.1665887450540193e+00 -9.9546480297364397e+00 8.6792672927179570e-01 0 0 0
110 1 4 -1.2000000000000000e-01 -7.6248247156235989e+00 -8.4704221824516797e+00 3.5170062380922906e-01 0 0 0
95 1 40 1.4999999999999999e-01 -2.1414705038245012e+00 -3.0992745541904454e+00 5.2558215809136621e-01 0 0 0
117 1 8 5.9999999999999998e-02 -3.1986562870882458e+00 -9.4095711385108700e+00 3.8290371698654674e-01 0 0 0
87 1 3 -1.7999999999999999e-01 -1.3382055896215732e+00 -1.6945704567046735e-01 6.2865600420839463e-01 0 0 0
115 1 8 5.9999999999999998e-02 -6.3775672881816430e+00 -6.1185827739086172e+00 1.9684775002080507e-01 0 0 0
166 1 15 1.1500000000000000e-01 -1.8840282877961569e+00 6.1421352544809684e+00 -1.1713584414905188e+01 0 0 0
186 1 8 5.9999999999999998e-02 -3.2700165024294212e+00 8.0074478420898725e+00 -1.0062071145494434e+01 0 0 0
165 1 15 1.1500000000000000e-01 -2.3173852434714095e+00 5.8325622104677448e+00 -7.5251041324842856e+00 0 0 0
92 1 3 -1.7999999999999999e-01 -3.5176243774766456e+00 6.9843170720575394e+00 -9.7317257285843670e+00 0 0 0
70 1 13 -1.1500000000000000e-01 -1.8546139147570633e+00 5.5753738509381030e+00 -8.4241195031098268e+00 0 0 0
69 1 13 -1.1500000000000000e-01 -8.4202487214480837e-01 4.6391231383093485e+00 -8.3283265187106483e+00 0 0 0
164 1 15 1.1500000000000000e-01 -5.5728379449560594e-01 4.3095765048590815e+00 -7.3487978645946397e+00 0 0 0
71 1 14 0.0000000000000000e+00 -2.3020394003336122e+00 6.0701434065904509e+00 -9.6341444597764916e+00 0 0 0
187 1 8 5.9999999999999998e-02 -3.9132463257601788e+00 7.0494123278464675e+00 -8.7166549283997909e+00 0 0 0
72 1 13 -1.1500000000000000e-01 -1.5951839370713197e+00 5.7475494658085822e+00 -1.0788736389412463e+01 0 0 0
67 1 46 2.0000000000000001e-01 -5.1707122266987560e-01 4.8007651145772607e+00 -1.0741009287829153e+01 0 0 0
68 1 14 0.0000000000000000e+00 -1.6951717112873660e-01 4.2217257469261860e+00 -9.5033293815640398e+00 0 0 0
150 1 8 5.9999999999999998e-02 -8.5430437497360368e-01 1.2151307084639962e+00 -1.6346763814235781e+00 0 0 0
185 1 8 5.9999999999999998e-02 -4.3066528898818479e+00 6.5101513418184984e+00 -1.0360062363260175e+01 0 0 0
148 1 8 5.9999999999999998e-02 -1.6407927202571945e-01 1.5031032690382233e+00 -3.9454091337858235e+00 0 0 0
130 1 8 5.9999999999999998e-02 -4.8677829598916782e+00 1.4999019195721150e+01 1.4348780753448686e+01 0 0 0
138 1 15 1.1500000000000000e-01 -3.9270638676151809e-01 6.2492593554489639e+00 1.3399777082151703e+01 0 0 0
145 1 15 1.1500000000000000e-01 -7.7148540147753741e-01 8.8982226701486122e-01 3.0183251420167081e+00 0 0 0
144 1 15 1.1500000000000000e-01 -8.0464908404138680e-01 1.9720862763191476e+00 5.3566862870494738e+00 0 0 0
181 1 8 5.9999999999999998e-02 -1.1849471602583193e+00 8.9030378087240014e-01 7.9521192082369407e-01 0 0 0
33 1 13 -1.1500000000000000e-01 -1.2233647409638403e-01 1.1112578929476295e-01 3.3299149039142812e+00 0 0 0
32 1 13 -1.1500000000000000e-01 -7.4105740647730081e-02 1.2097527682328728e+00 5.5134850677080482e+00 0 0 0
14 1 13 -1.1500000000000000e-01 -7.8324869231137872e-01 6.5925882796499566e+00 1.2421264085243855e+01 0 0 0
188 1 15 1.1500000000000000e-01 -1.5637996945891275e+00 5.7116758466475783e+00 7.9316472803347287e+00 0 0 0
18 1 13 -1.1500000000000000e-01 -1.0523742400726570e+00 5.3471481098047438e+00 8.8794263532607012e+00 0 0 0
16 1 14 0.0000000000000000e+00 -1.1506113041581565e+00 6.1691023375957208e+00 1.0025657044106508e+01 0 0 0
25 1 45 -4.0000000000000002e-01 -4.3000001987114089e-01 3.3179175158874457e+00 7.7468488951692835e+00 0 0 0
19 1 46 2.0000000000000001e-01 -3.0431713404453242e-01 4.1860880526579818e+00 8.8291669129520773e+00 0 0 0
17 1 13 -1.1500000000000000e-01 -1.8909112688488532e+00 7.3337285261877296e+00 9.9130476032315631e+00 0 0 0
15 1 14 0.0000000000000000e+00 -5.0655254997512167e-01 5.8104045764038643e+00 1.1251547388679205e+01 0 0 0
13 1 13 -1.1500000000000000e-01 -1.7328724112552361e+00 8.6508510175456799e+00 1.3381037596237372e+01 0 0 0
12 1 14 0.0000000000000000e+00 -1.5443052371403003e+00 7.7754606361412906e+00 1.2287536523272422e+01 0 0 0
139 1 15 1.1500000000000000e-01 -2.3745362013446321e+00 7.5093160478906871e+00 8.9406601709516629e+00 0 0 0
136 1 15 1.1500000000000000e-01 -3.0838167531220599e+00 9.5950030831253859e+00 9.8771467824269390e+00 0 0 0
135 1 15 1.1500000000000000e-01 -3.9381499335018524e+00 1.1743640926874054e+01 1.0724876898076916e+01 0 0 0
10 1 13 -1.1500000000000000e-01 -2.7595069965399315e+00 9.3363104036373645e+00 1.0847315123152208e+01 0 0 0
8 1 14 0.0000000000000000e+00 -2.9908202273043671e+00 1.0192562878228857e+01 1.1938859055296414e+01 0 0 0
11 1 14 0.0000000000000000e+00 -2.0458564889135986e+00 8.1650009849631271e+00 1.1010137754545955e+01 0 0 0
9 1 13 -1.1500000000000000e-01 -3.6089301313082669e+00 1.1377347051170075e+01 1.1673438849640085e+01 0 0 0
132 1 8 5.9999999999999998e-02 -3.8428101300176678e+00 1.4311132016391538e+01 1.2124444467570006e+01 0 0 0
2 1 4 -1.2000000000000000e-01 -4.5207360951888891e+00 1.3589893375360736e+01 1.2650961426499329e+01 0 0 0
131 1 8 5.9999999999999998e-02 -5.3759721274552703e+00 1.3599121987293103e+01 1.2040978022204412e+01 0 0 0
3 1 14 0.0000000000000000e+00 -3.8129459014263603e+00 1.2267821190083682e+01 1.2773796248759265e+01 0 0 0
7 1 14 0.0000000000000000e+00 -2.4597644119893212e+00 9.8412078039810034e+00 1.3265965693910458e+01 0 0 0
129 1 8 5.9999999999999998e-02 -5.6148181384368598e+00 1.3371631884532821e+01 1.4412072898111578e+01 0 0 0
5 1 4 -1.2000000000000000e-01 -3.6665731844822433e+00 1.3156391690100611e+01 1.4951655833243789e+01 0 0 0
4 1 14 0.0000000000000000e+00 -3.2885627809413469e+00 1.2016747305008900e+01 1.4024830908514431e+01 0 0 0
133 1 8 5.9999999999999998e-02 -2.8388142191357648e+00 1.3802122853175829e+01 1.5161275321137085e+01 0 0 0
6 1 40 1.4999999999999999e-01 -2.6450716941288919e+00 1.0774978619184058e+01 1.4305715271785035e+01 0 0 0
1 1 4 -1.2000000000000000e-01 -4.7553597370062386e+00 1.3905451658757531e+01 1.4161225927058936e+01 0 0 0
134 1 8 5.9999999999999998e-02 -4.0085014656088447e+00 1.2788730593536219e+01 1.5928395853407810e+01 0 0 0
85 1 41 -5.8499999999999996e-01 -2.1985792866224227e+00 1.0586435628008891e+01 1.5528681505143686e+01 0 0 0
137 1 15 1.1500000000000000e-01 -1.3629776792976767e+00 8.3769542860703883e+00 1.4295067064964018e+01 0 0 0
178 1 42 4.3500000000000000e-01 -2.1205771982016857e+00 1.1433213223946909e+01 1.5915579343306350e+01 0 0 0
174 1 8 5.9999999999999998e-02 3.9590990957965526e+00 -1.4741972894681721e+00 -1.6050380240595359e+01 0 0 0
177 1 8 5.9999999999999998e-02 4.6134944127113489e+00 -3.7771362510377231e+00 -1.6423385216655539e+01 0 0 0
82 1 4 -1.2000000000000000e-01 3.8297002281105978e+00 -2.0950636899128665e+00 -1.5239030222753332e+01 0 0 0
83 1 4 -1.2000000000000000e-01 4.6610212326670357e+00 -3.3802524982630806e+00 -1.5379789943567134e+01 0 0 0
176 1 8 5.9999999999999998e-02 5.7241069594793430e+00 -3.2510636201850005e+00 -1.5249124674456636e+01 0 0 0
175 1 8 5.9999999999999998e-02 2.7654670598585600e+00 -2.3151546752387278e+00 -1.5317431394783503e+01 0 0 0
76 1 4 -1.2000000000000000e-01 4.4774151951677768e+00 -2.4120070878989597e+00 -8.8814443144675792e+00 0 0 0
57 1 14 0.0000000000000000e+00 3.6084509109761220e+00 -1.1429535761511835e+00 -8.6608550326508826e+00 0 0 0
74 1 14 0.0000000000000000e+00 4.1640584363719473e+00 -2.0677760891310046e+00 -1.1359778606191634e+01 0 0 0
75 1 14 0.0000000000000000e+00 4.3311502177083669e+00 -2.9614684071776258e+00 -1.0293321879139469e+01 0 0 0
80 1 14 0.0000000000000000e+00 4.0727248823227669e+00 -2.5565675676934045e+00 -1.2669419666874594e+01 0 0 0
81 1 4 -1.2000000000000000e-01 3.9295383522039717e+00 -1.5234298351464572e+00 -1.3826871339441912e+01 0 0 0
173 1 8 5.9999999999999998e-02 4.8030452833151438e+00 -9.4249388421738600e-01 -1.3742256781864981e+01 0 0 0
73 1 4 -1.2000000000000000e-01 4.3817386562356768e+00 -5.9624103217013003e-01 -1.1003802403454268e+01 0 0 0
58 1 14 0.0000000000000000e+00 3.5755171717748970e+00 -2.3479551078512792e-01 -9.7559757173630768e+00 0 0 0
172 1 8 5.9999999999999998e-02 3.1471738953390358e+00 -8.3299928604667406e-01 -1.3754763259466053e+01 0 0 0
45 1 14 0.0000000000000000e+00 1.3593678579095683e+00 -3.5966351257876750e-01 -9.2106453345599026e-01 0 0 0
168 1 8 5.9999999999999998e-02 5.4407576759772533e+00 -5.2990093353718248e-01 -1.0628157117290517e+01 0 0 0
170 1 8 5.9999999999999998e-02 4.2976180007064171e+00 -3.2166735141899294e+00 -8.1435820593094004e+00 0 0 0
44 1 14 0.0000000000000000e+00 1.8709738623578822e+00 -6.5623905445737130e-01 -2.1961604404303929e+00 0 0 0
171 1 15 1.1500000000000000e-01 4.3099334517668817e+00 -5.0092983872471386e+00 -9.6993563006636965e+00 0 0 0
77 1 13 -1.1500000000000000e-01 4.2829587513380005e+00 -4.3610844021295492e+00 -1.0546973445331153e+01 0 0 0
79 1 14 0.0000000000000000e+00 4.0835565230955915e+00 -3.9509463916679652e+00 -1.2932169526238939e+01 0 0 0
78 1 40 1.4999999999999999e-01 4.2394513701540522e+00 -4.8742549120666530e+00 -1.1816914523350952e+01 0 0 0
84 1 43 4.6999999999999997e-01 4.1570480914826762e+00 -4.4399962101929349e+00 -1.4362339611580870e+01 0 0 0
90 1 41 -5.8499999999999996e-01 4.2613771985365219e+00 -6.2403822021724098e+00 -1.1985186632014713e+01 0 0 0
91 1 44 -4.6999999999999997e-01 4.2546923123276352e+00 -5.6012651125512223e+00 -1.4725378702119949e+01 0 0 0
184 1 42 4.3500000000000000e-01 4.1647973039890793e+00 -6.6786682857316615e+00 -1.2841770573816346e+01 0 0 0
169 1 8 5.9999999999999998e-02 5.4626287456252003e+00 -2.1463765867790383e+00 -8.7878120925394683e+00 0 0 0
55 1 14 0.0000000000000000e+00 2.9505431331375802e+00 -8.8849767785168332e-01 -7.4104542930012931e+00 0 0 0
157 1 8 5.9999999999999998e-02 4.3472748681224074e+00 -1.9280883828216635e+00 -6.1681216129441916e+00 0 0 0
89 1 44 -4.6999999999999997e-01 4.7769683402277456e+00 -2.7866619453705668e+00 -1.6693306818724953e+00 0 0 0
52 1 14 0.0000000000000000e+00 1.9724956522522827e+00 -1.8913351072013232e-01 -4.6472084373926812e+00 0 0 0
50 1 13 -1.1500000000000000e-01 3.1876735084915691e+00 -2.0148125730437196e+00 -3.7313779490383867e+00 0 0 0
51 1 14 0.0000000000000000e+00 2.7352999748870008e+00 -1.3165383293119732e+00 -4.8175965856279914e+00 0 0 0
158 1 8 5.9999999999999998e-02 2.7334927541783358e+00 -2.5899642785429560e+00 -6.4528384216153079e+00 0 0 0
154 1 15 1.1500000000000000e-01 3.9848757140916162e+00 -2.7245059209098961e+00 -3.8415963535450497e+00 0 0 0
42 1 43 4.6999999999999997e-01 3.6580168430821831e+00 -2.3136815161190967e+00 -1.3771376427380402e+00 0 0 0
56 1 4 -1.2000000000000000e-01 3.2900561473258780e+00 -1.7049533818840976e+00 -6.2114421965959608e+00 0 0 0
43 1 14 0.0000000000000000e+00 2.7897952475130792e+00 -1.7046427933185793e+00 -2.4359636333111765e+00 0 0 0
35 1 14 0.0000000000000000e+00 1.1307509196802590e+00 -1.9201356647231942e+00 2.8812598117429382e+00 0 0 0
37 1 5 -5.9999999999999998e-02 1.4062752279336561e+00 -2.9713127305682199e+00 1.8426947249816974e+00 0 0 0
143 1 15 1.1500000000000000e-01 2.5204630477522354e+00 -1.5820996918635670e+00 6.6588509950047170e+00 0 0 0
36 1 13 -1.1500000000000000e-01 1.5796424648234333e+00 -1.8941540298397337e+00 4.2022535334869664e+00 0 0 0
146 1 15 1.1500000000000000e-01 2.2036537885550396e+00 -2.6109607702719719e+00 4.6290707897692629e+00 0 0 0
127 1 42 4.3500000000000000e-01 4.1492795807597699e-01 -6.7314411290340930e+00 1.7058538091803623e+00 0 0 0
147 1 8 5.9999999999999998e-02 2.0915626312383289e+00 -3.6750751527054510e+00 2.3098694597755691e+00 0 0 0
38 1 14 0.0000000000000000e+00 1.8852920533825634e+00 -2.2665932143085041e+00 5.5033079239168148e-01 0 0 0
111 1 41 -5.8499999999999996e-01 7.6397101556607150e-01 -5.8560513293492145e+00 1.8129744058918364e+00 0 0 0
30 1 14 0.0000000000000000e+00 1.1456722262367878e+00 -9.3221568332001770e-01 5.1189973350272755e+00 0 0 0
29 1 13 -1.1500000000000000e-01 1.7589334217652002e+00 -8.7121989656597787e-01 6.4084231800226492e+00 0 0 0
88 1 41 -5.8499999999999996e-01 3.9655025308347840e+00 -3.4442085866347281e+00 7.0111603935950462e-01 0 0 0
34 1 14 0.0000000000000000e+00 2.4535775103195323e-01 -9.2773822948005469e-01 2.4507181279087678e+00 0 0 0
39 1 14 0.0000000000000000e+00 1.0264074230816591e+00 -1.2445979594155714e+00 1.2580282129287576e-01 0 0 0
142 1 8 5.9999999999999998e-02 1.3053161538379010e+00 -3.3491803356412531e-01 9.3960252792692387e+00 0 0 0
41 1 40 1.4999999999999999e-01 3.1615126634546304e+00 -2.5914270908443844e+00 3.0476568393895533e-02 0 0 0
183 1 42 4.3500000000000000e-01 4.8329673415940748e+00 -3.6051056739619836e+00 3.0493417234390452e-01 0 0 0
93 1 14 0.0000000000000000e+00 8.1577627892581495e-02 -3.5968985266659574e+00 1.4235207775614007e+00 0 0 0
153 1 8 5.9999999999999998e-02 2.0742069011977446e+00 1.5100120091994662e+00 -9.4735982243243455e-01 0 0 0
161 1 8 5.9999999999999998e-02 3.2871346059117537e+00 2.0632357491773909e+00 -1.1222833821175129e+01 0 0 0
60 1 14 0.0000000000000000e+00 2.0914464889585198e+00 1.1831748693052402e+00 -8.3789830309230062e+00 0 0 0
54 1 14 0.0000000000000000e+00 2.1865047444626255e+00 2.7904657234309566e-01 -7.2536708065635294e+00 0 0 0
65 1 47 8.5000000000000006e-02 1.0343810366574648e+00 3.4795496709154801e+00 -1.1892363208805312e+01 0 0 0
163 1 15 1.1500000000000000e-01 1.4092247100883186e+00 3.1836898386666923e+00 -1.2889076228247092e+01 0 0 0
63 1 14 0.0000000000000000e+00 1.4576997417583970e+00 2.8846299781047553e+00 -1.0715517863492577e+01 0 0 0
59 1 14 0.0000000000000000e+00 2.7034689369707210e+00 8.7910951693850548e-01 -9.6089297038502917e+00 0 0 0
64 1 4 -1.2000000000000000e-01 2.3494344708254657e+00 1.6405002355712981e+00 -1.0898249360962465e+01 0 0 0
61 1 4 -1.2000000000000000e-01 1.2377741813907071e+00 2.4162260692397086e+00 -8.2548318603703539e+00 0 0 0
160 1 8 5.9999999999999998e-02 1.7142614399460645e+00 3.0809891695286731e+00 -7.5722734018104170e+00 0 0 0
53 1 4 -1.2000000000000000e-01 1.6200337466407542e+00 6.7638675684642402e-01 -5.8860657819757751e+00 0 0 0
62 1 14 0.0000000000000000e+00 8.1233463981981324e-01 3.2125440503937326e+00 -9.4921933888077881e+00 0 0 0
156 1 8 5.9999999999999998e-02 1.6838067787152027e+00 1.6987009312343546e+00 -5.6281596371111489e+00 0 0 0
46 1 14 0.0000000000000000e+00 1.5416631080182543e+00 1.6194491208237344e-01 -3.3244898977159809e+00 0 0 0
47 1 4 -1.2000000000000000e-01 6.3730159798428432e-01 1.3888509006375926e+00 -3.2423418921810523e+00 0 0 0
149 1 8 5.9999999999999998e-02 1.2261353811653508e+00 2.1979759743148057e+00 -3.4565448156224248e+00 0 0 0
49 1 4 -1.2000000000000000e-01 1.0565054132470975e+00 1.1315735068007216e+00 -7.6709697889161343e-01 0 0 0
162 1 8 5.9999999999999998e-02 1.8579989372724171e+00 9.4319239832675050e-01 -1.1631291458423902e+01 0 0 0
155 1 8 5.9999999999999998e-02 5.9277591570995913e-01 4.8253298504789977e-01 -6.1164199960417616e+00 0 0 0
159 1 8 5.9999999999999998e-02 2.2666297561825036e-01 2.0982349950481276e+00 -7.7842845502774320e+00 0 0 0
66 1 45 -4.0000000000000002e-01 1.5783806148028134e-01 4.5107195761161769e+00 -1.1891738602855705e+01 0 0 0
48 1 4 -1.2000000000000000e-01 9.2797912825141993e-02 1.6962072061035067e+00 -1.8315583970016078e+00 0 0 0
151 1 8 5.9999999999999998e-02 1.4654203237333198e-02 2.7611198824333667e+00 -1.8675463585270753e+00 0 0 0
167 1 8 5.9999999999999998e-02 4.2721968083017048e+00 4.2593245740004101e-02 -1.1935109253774378e+01 0 0 0
179 1 42 4.3500000000000000e-01 7.5346358083117848e-01 4.6591025373120356e+00 1.3173458137165779e+01 0 0 0
22 1 13 -1.1500000000000000e-01 1.1321582147959890e+00 2.6041907814258058e+00 1.0019102074393009e+01 0 0 0
23 1 14 0.0000000000000000e+00 1.0130823516473182e+00 1.7392960369380686e+00 8.9196566902084324e+00 0 0 0
27 1 14 0.0000000000000000e+00 1.3264389950975342e+00 1.9718060917060362e-01 7.2480150789935864e+00 0 0 0
141 1 8 5.9999999999999998e-02 2.8769392556085620e+00 3.2169417528857208e-01 8.9071874376778695e+00 0 0 0
140 1 15 1.1500000000000000e-01 1.6724426704660400e+00 2.1928689409135589e+00 1.0800585634073013e+01 0 0 0
86 1 41 -5.8499999999999996e-01 8.5545778815058859e-01 4.1728189845870789e+00 1.2366902424073926e+01 0 0 0
28 1 4 -1.2000000000000000e-01 1.7748112030483909e+00 3.5860747595062342e-01 8.7083308434065696e+00 0 0 0
24 1 46 2.0000000000000001e-01 2.5974765681509066e-01 2.1358861485773630e+00 7.8185213259463859e+00 0 0 0
26 1 14 0.0000000000000000e+00 4.2698633930178398e-01 1.1610686296215253e+00 6.8491307522996374e+00 0 0 0
31 1 14 0.0000000000000000e+00 2.7737443996228023e-01 1.0018708764434350e-01 4.6727449702593828e+00 0 0 0
152 1 8 5.9999999999999998e-02 7.7890729487305266e-01 1.4916539176867125e+00 2.4177469797326578e-01 0 0 0
20 1 14 0.0000000000000000e+00 3.9811835149039682e-01 3.8560345574242021e+00 1.0037057520275924e+01 0 0 0
21 1 40 1.4999999999999999e-01 2.8287555918190638e-01 4.6566892824504675e+00 1.1211469730833352e+01 0 0 0

Velocities

102 4.5863956872620919e-03 -3.8397994140389863e-03 -8.9749031164796495e-04
103 -3.3335712166188943e-03 1.9231304478783326e-03 8.4015144045708114e-03
180 -2.7748606311543026e-02 2.4704323551204822e-02 2.1435427700414355e-02
126 1.2755256501225857e-02 -1.0615568193190262e-03 -1.9214865923099542e-02
124 3.8616408807808471e-03 -3.7933059510295410e-04 3.0164193716579114e-02
116 2.3587930313734084e-02 -1.8712790921835902e-03 9.5709677564142920e-03
112 -3.5533947298609205e-03 -4.0521036104795060e-03 -2.1843681810730284e-03
128 3.8495967714039007e-02 1.8504517790927260e-03 4.1993753084735887e-02
114 4.8518601830732288e-03 -5.9865010322963648e-04 4.4314558208042171e-03
121 1.5600271639436968e-02 1.1307771606720348e-03 -4.3318132033170814e-03
125 -4.1921444705410385e-03 8.1158791675105240e-03 7.8470099503957433e-03
107 -5.8062543633771117e-03 -5.9980599599989944e-03 -1.6737919202062320e-03
118 -1.3023684378714531e-02 1.9612175302852902e-02 1.1353429528190812e-02
120 -1.1815800291940555e-02 -1.2507451156471854e-02 9.1301069781917659e-04
108 -4.0602165487747914e-03 -3.2913565820460399e-03 -3.8699076133745978e-03
106 4.6364567590187963e-03 -2.1627627092147394e-03 -3.6174502518277604e-03
105 2.5471930856439677e-03 2.7052935555309816e-03 3.6870624264280891e-03
99 3.9985858335741383e-03 -4.4091711415594221e-03 5.3433655882348715e-03
101 -2.5155381065555217e-03 7.1503308050478642e-03 8.8866500924579799e-03
40 -3.2696079658022783e-03 -1.0435527088424382e-03 -2.3788152334467219e-03
98 2.1799866550283749e-03 -4.5132039818019847e-03 -1.5330281694461961e-03
94 -6.8660665973499018e-03 -1.2808607422881506e-03 -5.9117824143128366e-03
97 -9.5524100027688970e-03 1.4351563252141674e-03 -6.8513902064633739e-03
182 1.9344722640719986e-02 2.0500725238159729e-02 2.7431475235714358e-02
100 -4.0560863522238590e-03 -5.8840092151317691e-03 -4.1696007123389490e-03
113 -8.2116098439807519e-05 1.6614401402648938e-03 6.2468375745835577e-03
104 -9.8171760710904117e-03 2.5465686229772942e-03 -3.4583822611903301e-03
122 -2.1338208669352765e-02 1.7412133246569629e-02 -6.8271993163241404e-03
119 1.5224280172590390e-02 6.8356437607429727e-03 8.0272759416926912e-03
96 6.5804630477024860e-03 -8.2336443978507905e-04 3.5378729813407650e-04
109 -4.4677481564529701e-03 1.3499460909353010e-04 2.9168223029836580e-03
123 2.7603510493753995e-03 8.8518585202683568e-03 1.5494191783556844e-02
110 9.6734643890916405e-03 3.5023625043348514e-03 3.5189220049901591e-04
95 -7.6242557054722144e-03 -5.5158815109740307e-03 -7.7624331900311757e-03
117 -3.4629953693739502e-03 9.7764304645871127e-03 -8.0849817950741556e-03
87 5.4879574914632762e-03 6.1026242954612623e-03 -9.4398115228339820e-03
115 3.3636925170529811e-02 1.3854196552896525e-02 1.5909172579749824e-02
166 1.7359963975521678e-05 4.5608568918052029e-03 -1.9943481432780290e-02
186 5.2857790469806537e-03 6.5129781717708900e-03 6.1693108007316406e-04
165 -6.5569553874190263e-03 1.2391321452663416e-02 -2.1107883448126148e-03
92 5.3930089814218886e-03 1.5035255082744155e-03 -1.4291365300802027e-03
70 -2.2231088594998230e-03 -3.6750453003425291e-03 5.3506918847634130e-03
69 -7.7661692551836772e-04 1.1719666561451282e-03 1.0596291195325337e-03
164 2.6470352750297691e-02 -2.3421199391231252e-02 5.1194468082706914e-03
71 7.7226497925503648e-04 1.6077570965740251e-03 6.4102639235527718e-03