LAMMPS Description

     188  atoms
     213  bonds
     391  angles
     613  dihedrals
     76  impropers

     69  atom types
     60  bond types
     170  angle types
     256  dihedral types
     5  improper types

  -50.00 50.00 xlo xhi
  -50.00 50.00 ylo yhi
  -50.00 50.00 zlo zhi

Masses

1 1.008
2 15.999
3 12.011
4 12.011
5 12.011
6 12.011
7 12.011
8 1.008
9 12.011
10 12.011
11 12.011
12 1.008
13 12.011
14 12.011
15 1.008
16 12.011
17 15.999
18 14.007
19 14.007
20 14.007
21 1.008
22 1.008
23 12.011
24 15.999
25 15.999
26 1.008
27 12.011
28 15.999
29 12.011
30 12.011
31 12.011
32 12.011
33 12.011
34 14.007
35 12.011
36 12.011
37 12.011
38 12.011
39 1.008
40 12.011
41 15.999
42 1.008
43 12.011
44 15.999
45 15.999
46 12.011
47 12.011
48 12.011
49 12.011
50 1.008
51 12.011
52 15.999
53 1.008
54 1.008
55 12.011
56 12.011
57 12.011
58 14.007
59 12.011
60 12.011
61 32.06
62 12.011
63 14.007
64 12.011
65 1.008
66 12.011
67 1.008
68 22.99
69 35.453

Atoms

1 1 4 -0.12 -20.4265 6.53348 0.151134
2 1 4 -0.12 -19.5898 5.38833 -0.464615
3 1 14 0.0 -18.1666 5.86706 -0.292128
4 1 14 0.0 -18.1774 7.28696 -0.105896
5 1 4 -0.12 -19.5931 7.81111 -0.119676
6 1 40 0.15 -17.0056 7.97904 0.0605459
7 1 14 0.0 -15.7473 7.28337 0.059899
8 1 14 0.0 -15.7528 5.83586 -0.126632
9 1 13 -0.115 -16.9995 5.15315 -0.302492
10 1 13 -0.115 -14.5363 5.15551 -0.124815
11 1 14 0.0 -13.3026 5.81952 0.0544557
12 1 14 0.0 -13.312 7.26283 0.243837
13 1 13 -0.115 -14.5422 7.95278 0.238004
14 1 13 -0.115 -12.0938 7.93047 0.434359
15 1 14 0.0 -10.868 7.25407 0.45286
16 1 14 0.0 -10.8503 5.80729 0.250581
17 1 13 -0.115 -12.073 5.14349 0.0576662
18 1 13 -0.115 -9.62115 5.11238 0.256306
19 1 59 0.2 -8.41633 5.77649 0.468995
20 1 14 0.0 -8.41883 7.21879 0.692568
21 1 40 0.15 -9.6286 7.91762 0.673683
22 1 13 -0.115 -7.17822 7.87961 0.943888
23 1 14 0.0 -6.04184 7.1295 0.958062
24 1 59 0.2 -6.13775 5.70779 0.71067
25 1 58 -0.4 -7.24695 5.04386 0.475828
26 1 14 0.0 -4.78949 5.14614 0.797989
27 1 14 0.0 -3.88069 6.19896 1.11611
28 1 4 -0.12 -4.60985 7.52141 1.21176
29 1 13 -0.115 -2.54507 5.93751 1.30726
30 1 14 0.0 -2.0662 4.60906 1.17411
31 1 14 0.0 -2.97691 3.5505 0.814252
32 1 13 -0.115 -4.34936 3.84512 0.636282
33 1 13 -0.115 -2.48138 2.22262 0.666797
34 1 14 0.0 -1.15378 1.93812 0.887124
35 1 14 0.0 -0.281984 2.98546 1.28609
36 1 13 -0.115 -0.706268 4.28447 1.41629
37 1 5 -0.06 1.11974 2.48399 1.50493
38 1 14 0.0 1.52403 1.87255 0.162093
39 1 14 0.0 0.758818 0.682567 -0.190619
40 1 6 0.0 -0.485865 0.551368 0.78133
41 1 40 0.15 2.29675 2.64487 -0.66733
42 1 43 0.47 2.92816 2.22028 -1.936
43 1 14 0.0 3.29557 0.788171 -2.07411
44 1 14 0.0 2.49016 -0.317826 -1.70046
45 1 14 0.0 1.12975 -0.223439 -1.15124
46 1 14 0.0 2.99687 -1.62436 -1.95717
47 1 4 -0.12 2.20651 -2.8804 -1.64133
48 1 4 -0.12 0.780274 -2.65746 -1.126
49 1 4 -0.12 0.264864 -1.3351 -1.69764
50 1 13 -0.115 4.54592 0.576288 -2.66911
51 1 14 0.0 5.05959 -0.696489 -2.87037
52 1 14 0.0 4.27436 -1.80322 -2.51684
53 1 4 -0.12 4.77849 -3.19847 -2.7351
54 1 14 0.0 6.16082 -3.34642 -3.30352
55 1 14 0.0 6.94604 -2.2432 -3.63619
56 1 4 -0.12 6.43625 -0.838719 -3.46163
57 1 14 0.0 8.24815 -2.43554 -4.14188
58 1 14 0.0 8.74923 -3.72725 -4.30891
59 1 14 0.0 7.94791 -4.8442 -3.98848
60 1 14 0.0 6.65868 -4.65248 -3.4892
61 1 4 -0.12 5.75995 -5.80487 -3.13548
62 1 14 0.0 6.33017 -7.17337 -3.34105
63 1 14 0.0 7.60752 -7.36325 -3.82746
64 1 4 -0.12 8.51382 -6.2247 -4.19564
65 1 60 0.085 8.07963 -8.69462 -3.98538
66 1 58 -0.4 7.39518 -9.78513 -3.70377
67 1 59 0.2 6.12453 -9.61493 -3.22081
68 1 14 0.0 5.5463 -8.31999 -3.02266
69 1 13 -0.115 4.22197 -8.24184 -2.51935
70 1 13 -0.115 3.50959 -9.38781 -2.22862
71 1 14 0.0 4.07336 -10.6783 -2.42065
72 1 13 -0.115 5.36516 -10.7708 -2.91045
73 1 4 -0.12 10.1453 -3.98178 -4.80643
74 1 14 0.0 10.9716 -2.77683 -5.16138
75 1 14 0.0 10.4561 -1.4846 -5.01187
76 1 4 -0.12 9.07224 -1.22535 -4.48416
77 1 13 -0.115 11.239 -0.383129 -5.35791
78 1 40 0.15 12.5315 -0.534472 -5.85786
79 1 14 0.0 13.0774 -1.83607 -6.03035
80 1 14 0.0 12.2762 -2.94849 -5.66274
81 1 4 -0.12 12.8012 -4.35924 -5.81668
82 1 4 -0.12 14.3189 -4.44392 -5.94515
83 1 4 -0.12 14.7975 -3.45854 -7.00885
84 1 43 0.47 14.433 -2.03074 -6.62246
85 1 41 -0.585 -16.9577 9.34202 0.243406
86 1 41 -0.585 -9.5636 9.27152 0.886336
87 1 3 -0.18 -1.56787 -0.48769 0.493695
88 1 41 -0.585 2.611 3.94432 -0.378759
89 1 44 -0.47 3.30553 3.06085 -2.75565
90 1 41 -0.585 13.2679 0.559967 -6.20442
91 1 44 -0.47 15.2303 -1.11648 -6.80576
92 1 3 -0.18 3.2619 -11.9038 -2.09538
93 1 14 0.0 1.04096 1.36998 2.50664
94 1 14 0.0 0.215538 0.317425 2.13722
95 1 40 0.15 0.116183 -0.814144 3.00425
96 1 14 0.0 0.769481 -0.771748 4.26247
97 1 14 0.0 1.56294 0.340693 4.63711
98 1 40 0.15 1.73003 1.41129 3.74043
99 1 43 0.47 2.19068 0.400373 5.94186
100 1 14 0.0 1.94885 -0.691966 6.8926
101 1 14 0.0 1.19643 -1.77177 6.53402
102 1 43 0.47 0.603197 -1.87179 5.1925
103 1 4 -0.12 0.931497 -2.90603 7.47188
104 1 9 0.0 1.43626 -2.69997 8.87215
105 1 9 0.0 2.1541 -1.62139 9.23183
106 1 4 -0.12 2.54484 -0.547028 8.25566
107 1 4 -0.12 2.63044 -1.3993 10.6467
108 1 4 -0.12 1.92042 -2.29525 11.6661
109 1 4 -0.12 1.86009 -3.73605 11.1512
110 1 4 -0.12 1.0692 -3.79713 9.84032
111 1 41 -0.585 2.4896 2.47324 4.03868
112 1 41 -0.585 -0.582074 -1.90222 2.66167
113 1 44 -0.47 2.92277 1.37965 6.27192
114 1 44 -0.47 -0.0569463 -2.90874 4.87774
115 1 8 0.06 -0.154879 -3.11408 7.48017
116 1 8 0.06 1.35957 -3.83217 7.04077
117 1 8 0.06 3.64701 -0.487966 8.16359
118 1 8 0.06 2.27423 0.449048 8.6535
119 1 8 0.06 3.72331 -1.56904 10.6886
120 1 8 0.06 2.48796 -0.33599 10.908
121 1 8 0.06 0.893152 -1.92369 11.8193
122 1 8 0.06 2.43251 -2.24586 12.6392
123 1 8 0.06 1.40906 -4.4048 11.9007
124 1 8 0.06 2.88706 -4.09598 10.971
125 1 8 0.06 -0.0165758 -3.73978 10.0471
126 1 8 0.06 1.22077 -4.77308 9.34648
127 1 42 0.435 2.8396 2.27653 4.98125
128 1 42 0.435 -0.506748 -2.52867 3.47957
129 1 8 0.06 -20.4985 6.38151 1.23863
130 1 8 0.06 -21.4458 6.59458 -0.253591
131 1 8 0.06 -19.7774 4.41185 0.00363563
132 1 8 0.06 -19.8168 5.28529 -1.54068
133 1 8 0.06 -19.8432 8.23511 -1.10955
134 1 8 0.06 -19.7827 8.59878 0.629326
135 1 15 0.115 -16.9921 4.07034 -0.439941
136 1 15 0.115 -14.5339 4.07241 -0.268764
137 1 15 0.115 -14.5458 9.03381 0.381958
138 1 15 0.115 -12.1508 9.01537 0.572271
139 1 15 0.115 -12.062 4.06154 -0.0932168
140 1 15 0.115 -7.1709 8.95504 1.12395
141 1 8 0.06 -4.24046 8.24119 0.461748
142 1 8 0.06 -4.47529 7.9933 2.19913
143 1 15 0.115 -1.84176 6.73179 1.56862
144 1 15 0.115 -5.05622 3.05231 0.384881
145 1 15 0.115 -3.19226 1.44604 0.386326
146 1 15 0.115 -0.016742 5.07085 1.73572
147 1 8 0.06 1.81372 3.25553 1.85481
148 1 8 0.06 2.77765 -3.5047 -0.933623
149 1 8 0.06 2.15181 -3.47697 -2.56918
150 1 8 0.06 0.760717 -2.60471 -0.0262771
151 1 8 0.06 0.139501 -3.50078 -1.42522
152 1 8 0.06 -0.795695 -1.18526 -1.51793
153 1 8 0.06 0.400762 -1.35077 -2.79304
154 1 15 0.115 5.12249 1.45437 -2.96569
155 1 8 0.06 4.72342 -3.75108 -1.77887
156 1 8 0.06 4.06019 -3.73665 -3.38297
157 1 8 0.06 6.45703 -0.318662 -4.4375
158 1 8 0.06 7.14619 -0.268093 -2.83556
159 1 8 0.06 5.43978 -5.71406 -2.08073
160 1 8 0.06 4.8162 -5.72385 -3.70682
161 1 8 0.06 8.8175 -6.34147 -5.25329
162 1 8 0.06 9.45999 -6.3241 -3.63126
163 1 15 0.115 9.09584 -8.8443 -4.37202
164 1 15 0.115 3.76102 -7.26593 -2.36087
165 1 15 0.115 2.4906 -9.30724 -1.84326
166 1 15 0.115 5.83815 -11.7407 -3.07443
167 1 8 0.06 10.6771 -4.57804 -4.04049
168 1 8 0.06 10.1028 -4.65883 -5.67986
169 1 8 0.06 8.52762 -0.605664 -5.22101
170 1 8 0.06 9.15289 -0.575195 -3.59301
171 1 15 0.115 10.8297 0.625348 -5.23915
172 1 8 0.06 12.4658 -4.97428 -4.9685
173 1 8 0.06 12.3325 -4.80937 -6.71294
174 1 8 0.06 14.6221 -5.47225 -6.19295
175 1 8 0.06 14.7842 -4.19015 -4.97829
176 1 8 0.06 14.3022 -3.68716 -7.97071
177 1 8 0.06 15.8827 -3.4919 -7.17216
178 1 42 0.435 -17.867 9.68186 0.227083
179 1 42 0.435 -10.4608 9.63965 0.886242
180 1 8 0.06 -1.17759 -1.50304 0.428351
181 1 8 0.06 -2.10773 -0.225274 -0.42483
182 1 8 0.06 -2.28546 -0.467001 1.32417
183 1 42 0.435 1.97088 4.3002 0.258664
184 1 42 0.435 12.7192 1.34861 -6.05615
185 1 8 0.06 3.82985 -12.8221 -2.29555
186 1 8 0.06 2.33701 -11.9309 -2.69352
187 1 8 0.06 2.96038 -11.9063 -1.03565
188 1 15 0.115 -9.60117 4.03429 0.0964872

Bonds

1 28 1 129 
2 28 1 130 
3 22 1 5 
4 22 1 2 
5 30 2 3 
6 28 2 132 
7 28 2 131 
8 56 3 9 
9 56 3 4 
10 30 4 5 
11 56 4 6 
12 28 5 133 
13 28 5 134 
14 20 6 85 
15 56 6 7 
16 56 7 13 
17 56 7 8 
18 56 8 9 
19 56 8 10 
20 57 9 135 
21 57 10 136 
22 56 10 11 
23 56 11 17 
24 56 11 12 
25 56 12 13 
26 56 12 14 
27 57 13 137 
28 57 14 138 
29 56 14 15 
30 56 15 21 
31 56 15 16 
32 56 16 17 
33 56 16 18 
34 57 17 139 
35 56 18 19 
36 57 18 188 
37 59 19 25 
38 56 19 20 
39 56 20 21 
40 56 20 22 
41 20 21 86 
42 57 22 140 
43 56 22 23 
44 30 23 28 
45 56 23 24 
46 59 24 25 
47 56 24 26 
48 56 26 27 
49 56 26 32 
50 30 27 28 
51 56 27 29 
52 28 28 141 
53 28 28 142 
54 56 29 30 
55 57 29 143 
56 56 30 36 
57 56 30 31 
58 56 31 33 
59 56 31 32 
60 57 32 144 
61 57 33 145 
62 56 33 34 
63 56 34 35 
64 30 34 40 
65 56 35 36 
66 30 35 37 
67 57 36 146 
68 30 37 93 
69 30 37 38 
70 28 37 147 
71 56 38 41 
72 56 38 39 
73 56 39 45 
74 30 39 40 
75 30 40 94 
76 22 40 87 
77 11 41 42 
78 20 41 88 
79 11 42 43 
80 2 42 89 
81 56 43 44 
82 56 43 50 
83 56 44 45 
84 56 44 46 
85 30 45 49 
86 56 46 52 
87 30 46 47 
88 28 47 148 
89 28 47 149 
90 22 47 48 
91 22 48 49 
92 28 48 151 
93 28 48 150 
94 28 49 152 
95 28 49 153 
96 57 50 154 
97 56 50 51 
98 56 51 52 
99 30 51 56 
100 30 52 53 
101 28 53 155 
102 28 53 156 
103 30 53 54 
104 56 54 60 
105 56 54 55 
106 56 55 57 
107 30 55 56 
108 28 56 157 
109 28 56 158 
110 56 57 58 
111 30 57 76 
112 56 58 59 
113 30 58 73 
114 56 59 60 
115 30 59 64 
116 30 60 61 
117 30 61 62 
118 28 61 159 
119 28 61 160 
120 56 62 68 
121 56 62 63 
122 56 63 65 
123 30 63 64 
124 28 64 161 
125 28 64 162 
126 59 65 66 
127 57 65 163 
128 59 66 67 
129 56 67 68 
130 56 67 72 
131 56 68 69 
132 57 69 164 
133 56 69 70 
134 57 70 165 
135 56 70 71 
136 30 71 92 
137 56 71 72 
138 57 72 166 
139 30 73 74 
140 28 73 167 
141 28 73 168 
142 56 74 75 
143 56 74 80 
144 30 75 76 
145 56 75 77 
146 28 76 170 
147 28 76 169 
148 57 77 171 
149 56 77 78 
150 20 78 90 
151 56 78 79 
152 11 79 84 
153 56 79 80 
154 30 80 81 
155 22 81 82 
156 28 81 172 
157 28 81 173 
158 22 82 83 
159 28 82 174 
160 28 82 175 
161 28 83 177 
162 4 83 84 
163 28 83 176 
164 2 84 91 
165 14 85 178 
166 14 86 179 
167 28 87 180 
168 28 87 181 
169 28 87 182 
170 14 88 183 
171 14 90 184 
172 28 92 185 
173 28 92 186 
174 28 92 187 
175 56 93 98 
176 56 93 94 
177 56 94 95 
178 20 95 112 
179 56 95 96 
180 56 96 97 
181 11 96 102 
182 56 97 98 
183 11 97 99 
184 20 98 111 
185 11 99 100 
186 2 99 113 
187 30 100 106 
188 56 100 101 
189 11 101 102 
190 30 101 103 
191 2 102 114 
192 28 103 115 
193 28 103 116 
194 29 103 104 
195 54 104 105 
196 29 104 110 
197 29 105 106 
198 29 105 107 
199 28 106 117 
200 28 106 118 
201 22 107 108 
202 28 107 119 
203 28 107 120 
204 28 108 121 
205 28 108 122 
206 22 108 109 
207 28 109 124 
208 28 109 123 
209 22 109 110 
210 28 110 125 
211 28 110 126 
212 14 111 127 
213 14 112 128 

Angles

1 80 1 5 4 
2 68 1 5 133 
3 68 1 5 134 
4 80 1 2 3 
5 68 1 2 132 
6 68 1 2 131 
7 68 2 1 129 
8 68 2 1 130 
9 47 2 1 5 
10 142 2 3 9 
11 142 2 3 4 
12 152 3 9 135 
13 140 3 9 8 
14 73 3 2 132 
15 73 3 2 131 
16 142 3 4 5 
17 140 3 4 6 
18 140 4 3 9 
19 73 4 5 133 
20 73 4 5 134 
21 141 4 6 85 
22 140 4 6 7 
23 68 5 1 129 
24 68 5 1 130 
25 142 5 4 6 
26 44 6 85 178 
27 140 6 7 13 
28 140 6 7 8 
29 152 7 13 137 
30 140 7 13 12 
31 141 7 6 85 
32 140 7 8 9 
33 140 7 8 10 
34 152 8 9 135 
35 152 8 10 136 
36 140 8 10 11 
37 140 8 7 13 
38 140 9 8 10 
39 140 10 11 17 
40 140 10 11 12 
41 152 11 17 139 
42 140 11 17 16 
43 152 11 10 136 
44 140 11 12 13 
45 140 11 12 14 
46 140 12 11 17 
47 152 12 13 137 
48 152 12 14 138 
49 140 12 14 15 
50 140 13 12 14 
51 140 14 15 21 
52 140 14 15 16 
53 140 15 21 20 
54 141 15 21 86 
55 152 15 14 138 
56 140 15 16 17 
57 140 15 16 18 
58 152 16 17 139 
59 140 16 18 19 
60 152 16 18 188 
61 140 16 15 21 
62 140 17 16 18 
63 159 18 19 25 
64 140 18 19 20 
65 167 19 25 24 
66 152 19 18 188 
67 140 19 20 21 
68 140 19 20 22 
69 159 20 19 25 
70 141 20 21 86 
71 152 20 22 140 
72 140 20 22 23 
73 140 21 20 22 
74 44 21 86 179 
75 142 22 23 28 
76 140 22 23 24 
77 75 23 28 27 
78 73 23 28 141 
79 73 23 28 142 
80 152 23 22 140 
81 159 23 24 25 
82 140 23 24 26 
83 140 24 26 27 
84 140 24 26 32 
85 142 24 23 28 
86 159 25 24 26 
87 142 26 27 28 
88 140 26 27 29 
89 140 26 32 31 
90 152 26 32 144 
91 140 27 26 32 
92 73 27 28 141 
93 73 27 28 142 
94 140 27 29 30 
95 152 27 29 143 
96 142 28 27 29 
97 140 29 30 36 
98 140 29 30 31 
99 152 30 36 146 
100 140 30 36 35 
101 152 30 29 143 
102 140 30 31 33 
103 140 30 31 32 
104 152 31 33 145 
105 140 31 33 34 
106 140 31 30 36 
107 152 31 32 144 
108 140 32 31 33 
109 140 33 34 35 
110 142 33 34 40 
111 152 34 33 145 
112 140 34 35 36 
113 142 34 35 37 
114 75 34 40 94 
115 75 34 40 39 
116 80 34 40 87 
117 142 35 34 40 
118 152 35 36 146 
119 75 35 37 93 
120 75 35 37 38 
121 73 35 37 147 
122 142 36 35 37 
123 142 37 93 98 
124 142 37 93 94 
125 142 37 38 41 
126 142 37 38 39 
127 149 38 41 42 
128 141 38 41 88 
129 75 38 37 93 
130 73 38 37 147 
131 140 38 39 45 
132 142 38 39 40 
133 142 39 45 49 
134 140 39 45 44 
135 140 39 38 41 
136 75 39 40 94 
137 80 39 40 87 
138 142 40 94 93 
139 142 40 94 95 
140 142 40 39 45 
141 68 40 87 180 
142 68 40 87 181 
143 68 40 87 182 
144 33 41 42 43 
145 31 41 42 89 
146 44 41 88 183 
147 149 42 43 44 
148 149 42 43 50 
149 31 43 42 89 
150 140 43 44 45 
151 140 43 44 46 
152 152 43 50 154 
153 140 43 50 51 
154 140 44 43 50 
155 142 44 45 49 
156 140 44 46 52 
157 142 44 46 47 
158 73 45 49 152 
159 73 45 49 153 
160 80 45 49 48 
161 140 45 44 46 
162 140 46 52 51 
163 142 46 52 53 
164 73 46 47 148 
165 73 46 47 149 
166 80 46 47 48 
167 142 47 46 52 
168 47 47 48 49 
169 68 47 48 151 
170 68 47 48 150 
171 68 48 49 152 
172 68 48 49 153 
173 68 48 47 148 
174 68 48 47 149 
175 68 49 48 151 
176 68 49 48 150 
177 140 50 51 52 
178 142 50 51 56 
179 152 51 50 154 
180 142 51 52 53 
181 73 51 56 157 
182 73 51 56 158 
183 75 51 56 55 
184 142 52 51 56 
185 73 52 53 155 
186 73 52 53 156 
187 75 52 53 54 
188 142 53 54 60 
189 142 53 54 55 
190 140 54 60 59 
191 142 54 60 61 
192 73 54 53 155 
193 73 54 53 156 
194 140 54 55 57 
195 142 54 55 56 
196 140 55 57 58 
197 142 55 57 76 
198 140 55 54 60 
199 73 55 56 157 
200 73 55 56 158 
201 142 56 55 57 
202 140 57 58 59 
203 142 57 58 73 
204 73 57 76 170 
205 75 57 76 75 
206 73 57 76 169 
207 142 58 57 76 
208 140 58 59 60 
209 142 58 59 64 
210 75 58 73 74 
211 73 58 73 167 
212 73 58 73 168 
213 142 59 58 73 
214 142 59 60 61 
215 73 59 64 161 
216 73 59 64 162 
217 75 59 64 63 
218 142 60 59 64 
219 75 60 61 62 
220 73 60 61 159 
221 73 60 61 160 
222 142 61 62 68 
223 142 61 62 63 
224 140 62 68 67 
225 140 62 68 69 
226 73 62 61 159 
227 73 62 61 160 
228 140 62 63 65 
229 142 62 63 64 
230 159 63 65 66 
231 152 63 65 163 
232 140 63 62 68 
233 73 63 64 161 
234 73 63 64 162 
235 142 64 63 65 
236 167 65 66 67 
237 154 66 65 163 
238 159 66 67 68 
239 159 66 67 72 
240 140 67 68 69 
241 152 67 72 166 
242 140 67 72 71 
243 140 68 67 72 
244 152 68 69 164 
245 140 68 69 70 
246 152 69 70 165 
247 140 69 70 71 
248 152 70 69 164 
249 142 70 71 92 
250 140 70 71 72 
251 73 71 92 185 
252 73 71 92 186 
253 73 71 92 187 
254 152 71 70 165 
255 152 71 72 166 
256 142 72 71 92 
257 142 73 74 75 
258 142 73 74 80 
259 73 74 73 167 
260 73 74 73 168 
261 142 74 75 76 
262 140 74 75 77 
263 142 74 80 81 
264 140 74 80 79 
265 140 75 74 80 
266 73 75 76 170 
267 73 75 76 169 
268 152 75 77 171 
269 140 75 77 78 
270 142 76 75 77 
271 141 77 78 90 
272 140 77 78 79 
273 44 78 90 184 
274 152 78 77 171 
275 149 78 79 84 
276 140 78 79 80 
277 29 79 84 83 
278 31 79 84 91 
279 141 79 78 90 
280 142 79 80 81 
281 80 80 81 82 
282 73 80 81 172 
283 73 80 81 173 
284 149 80 79 84 
285 47 81 82 83 
286 68 81 82 174 
287 68 81 82 175 
288 68 82 81 172 
289 68 82 81 173 
290 68 82 83 177 
291 48 82 83 84 
292 68 82 83 176 
293 68 83 82 174 
294 68 83 82 175 
295 7 83 84 91 
296 62 84 83 177 
297 62 84 83 176 
298 80 87 40 94 
299 140 93 98 97 
300 141 93 98 111 
301 73 93 37 147 
302 140 93 94 95 
303 140 94 93 98 
304 141 94 95 112 
305 140 94 95 96 
306 44 95 112 128 
307 140 95 96 97 
308 149 95 96 102 
309 140 96 97 98 
310 149 96 97 99 
311 31 96 102 114 
312 33 96 102 101 
313 141 96 95 112 
314 141 97 98 111 
315 33 97 99 100 
316 31 97 99 113 
317 149 97 96 102 
318 149 98 97 99 
319 44 98 111 127 
320 139 99 100 106 
321 149 99 100 101 
322 74 100 106 105 
323 73 100 106 117 
324 73 100 106 118 
325 31 100 99 113 
326 149 100 101 102 
327 142 100 101 103 
328 142 101 100 106 
329 31 101 102 114 
330 73 101 103 115 
331 73 101 103 116 
332 74 101 103 104 
333 139 102 101 103 
334 132 103 104 105 
335 123 103 104 110 
336 132 104 105 106 
337 132 104 105 107 
338 70 104 110 125 
339 71 104 110 109 
340 70 104 110 126 
341 70 104 103 115 
342 70 104 103 116 
343 70 105 106 117 
344 70 105 106 118 
345 71 105 107 108 
346 70 105 107 119 
347 70 105 107 120 
348 132 105 104 110 
349 123 106 105 107 
350 68 107 108 121 
351 68 107 108 122 
352 47 107 108 109 
353 68 108 107 119 
354 68 108 107 120 
355 68 108 109 124 
356 68 108 109 123 
357 47 108 109 110 
358 68 109 108 121 
359 68 109 108 122 
360 68 109 110 125 
361 68 109 110 126 
362 68 110 109 124 
363 68 110 109 123 
364 61 115 103 116 
365 61 117 106 118 
366 61 119 107 120 
367 61 121 108 122 
368 61 123 109 124 
369 61 125 110 126 
370 61 129 1 130 
371 61 131 2 132 
372 61 133 5 134 
373 61 141 28 142 
374 61 148 47 149 
375 61 150 48 151 
376 61 152 49 153 
377 61 155 53 156 
378 61 157 56 158 
379 61 159 61 160 
380 61 161 64 162 
381 61 167 73 168 
382 61 169 76 170 
383 61 172 81 173 
384 61 174 82 175 
385 61 176 83 177 
386 61 180 87 181 
387 61 180 87 182 
388 61 181 87 182 
389 61 185 92 186 
390 61 185 92 187 
391 61 186 92 187 

Dihedrals

1 179 1 5 4 3 
2 179 1 5 4 6 
3 179 1 2 3 9 
4 179 1 2 3 4 
5 101 2 1 5 4 
6 121 2 1 5 133 
7 121 2 1 5 134 
8 234 2 3 9 135 
9 233 2 3 9 8 
10 232 2 3 4 5 
11 233 2 3 4 6 
12 239 3 9 8 10 
13 239 3 9 8 7 
14 136 3 2 1 129 
15 136 3 2 1 130 
16 101 3 2 1 5 
17 182 3 4 5 133 
18 182 3 4 5 134 
19 230 3 4 6 85 
20 239 3 4 6 7 
21 240 4 3 9 135 
22 239 4 3 9 8 
23 182 4 3 2 132 
24 182 4 3 2 131 
25 136 4 5 1 129 
26 136 4 5 1 130 
27 98 4 6 85 178 
28 239 4 6 7 13 
29 239 4 6 7 8 
30 121 5 1 2 132 
31 121 5 1 2 131 
32 233 5 4 3 9 
33 229 5 4 6 85 
34 233 5 4 6 7 
35 239 6 4 3 9 
36 182 6 4 5 133 
37 182 6 4 5 134 
38 240 6 7 13 137 
39 239 6 7 13 12 
40 239 6 7 8 9 
41 239 6 7 8 10 
42 239 7 13 12 11 
43 239 7 13 12 14 
44 98 7 6 85 178 
45 240 7 8 9 135 
46 240 7 8 10 136 
47 239 7 8 10 11 
48 239 8 10 11 17 
49 239 8 10 11 12 
50 240 8 7 13 137 
51 239 8 7 13 12 
52 230 8 7 6 85 
53 182 9 3 2 132 
54 182 9 3 2 131 
55 240 9 8 10 136 
56 239 9 8 10 11 
57 239 9 8 7 13 
58 240 10 11 17 139 
59 239 10 11 17 16 
60 239 10 11 12 13 
61 239 10 11 12 14 
62 240 10 8 9 135 
63 239 10 8 7 13 
64 239 11 17 16 18 
65 239 11 17 16 15 
66 240 11 12 13 137 
67 240 11 12 14 138 
68 239 11 12 14 15 
69 240 12 11 17 139 
70 239 12 11 17 16 
71 240 12 11 10 136 
72 239 12 14 15 21 
73 239 12 14 15 16 
74 239 13 12 11 17 
75 240 13 12 14 138 
76 239 13 12 14 15 
77 230 13 7 6 85 
78 239 14 12 11 17 
79 240 14 12 13 137 
80 239 14 15 21 20 
81 230 14 15 21 86 
82 239 14 15 16 17 
83 239 14 15 16 18 
84 239 15 21 20 19 
85 239 15 21 20 22 
86 98 15 21 86 179 
87 240 15 16 17 139 
88 239 15 16 18 19 
89 240 15 16 18 188 
90 230 16 18 19 25 
91 239 16 18 19 20 
92 239 16 15 21 20 
93 230 16 15 21 86 
94 240 16 15 14 138 
95 240 17 11 10 136 
96 239 17 16 18 19 
97 240 17 16 18 188 
98 239 17 16 15 21 
99 244 18 19 25 24 
100 239 18 19 20 21 
101 239 18 19 20 22 
102 240 18 16 17 139 
103 239 18 16 15 21 
104 244 19 25 24 26 
105 244 19 25 24 23 
106 230 19 20 21 86 
107 240 19 20 22 140 
108 239 19 20 22 23 
109 244 20 19 25 24 
110 240 20 19 18 188 
111 98 20 21 86 179 
112 233 20 22 23 28 
113 239 20 22 23 24 
114 230 21 20 19 25 
115 240 21 20 22 140 
116 239 21 20 22 23 
117 240 21 15 14 138 
118 230 22 20 19 25 
119 230 22 20 21 86 
120 178 22 23 28 27 
121 182 22 23 28 141 
122 182 22 23 28 142 
123 230 22 23 24 25 
124 239 22 23 24 26 
125 178 23 28 27 26 
126 178 23 28 27 29 
127 239 23 24 26 27 
128 239 23 24 26 32 
129 233 24 26 27 28 
130 239 24 26 27 29 
131 239 24 26 32 31 
132 240 24 26 32 144 
133 178 24 23 28 27 
134 182 24 23 28 141 
135 182 24 23 28 142 
136 240 24 23 22 140 
137 231 25 19 18 188 
138 230 25 24 26 27 
139 230 25 24 26 32 
140 229 25 24 23 28 
141 182 26 27 28 141 
142 182 26 27 28 142 
143 239 26 27 29 30 
144 240 26 27 29 143 
145 239 26 32 31 33 
146 239 26 32 31 30 
147 233 26 24 23 28 
148 239 27 26 32 31 
149 240 27 26 32 144 
150 239 27 29 30 36 
151 239 27 29 30 31 
152 233 28 27 26 32 
153 233 28 27 29 30 
154 234 28 27 29 143 
155 234 28 23 22 140 
156 239 29 27 26 32 
157 182 29 27 28 141 
158 182 29 27 28 142 
159 240 29 30 36 146 
160 239 29 30 36 35 
161 239 29 30 31 33 
162 239 29 30 31 32 
163 239 30 36 35 34 
164 233 30 36 35 37 
165 240 30 31 33 145 
166 239 30 31 33 34 
167 240 30 31 32 144 
168 239 31 33 34 35 
169 233 31 33 34 40 
170 240 31 30 36 146 
171 239 31 30 36 35 
172 240 31 30 29 143 
173 240 32 31 33 145 
174 239 32 31 33 34 
175 239 32 31 30 36 
176 239 33 34 35 36 
177 233 33 34 35 37 
178 178 33 34 40 94 
179 178 33 34 40 39 
180 179 33 34 40 87 
181 239 33 31 30 36 
182 240 33 31 32 144 
183 240 34 35 36 146 
184 178 34 35 37 93 
185 178 34 35 37 38 
186 182 34 35 37 147 
187 178 34 40 94 93 
188 178 34 40 94 95 
189 178 34 40 39 45 
190 178 34 40 39 38 
191 136 34 40 87 180 
192 136 34 40 87 181 
193 136 34 40 87 182 
194 240 35 34 33 145 
195 178 35 34 40 94 
196 178 35 34 40 39 
197 179 35 34 40 87 
198 178 35 37 93 98 
199 178 35 37 93 94 
200 178 35 37 38 41 
201 178 35 37 38 39 
202 233 36 35 34 40 
203 178 36 35 37 93 
204 178 36 35 37 38 
205 182 36 35 37 147 
206 240 36 30 29 143 
207 232 37 35 34 40 
208 234 37 35 36 146 
209 233 37 93 98 97 
210 229 37 93 98 111 
211 233 37 93 94 95 
212 232 37 93 94 40 
213 229 37 38 41 42 
214 229 37 38 41 88 
215 233 37 38 39 45 
216 232 37 38 39 40 
217 79 38 41 42 89 
218 98 38 41 88 183 
219 178 38 37 93 98 
220 178 38 37 93 94 
221 233 38 39 45 49 
222 239 38 39 45 44 
223 178 38 39 40 94 
224 179 38 39 40 87 
225 182 39 45 49 152 
226 182 39 45 49 153 
227 179 39 45 49 48 
228 239 39 45 44 43 
229 239 39 45 44 46 
230 230 39 38 41 42 
231 230 39 38 41 88 
232 178 39 38 37 93 
233 182 39 38 37 147 
234 178 39 40 94 93 
235 178 39 40 94 95 
236 136 39 40 87 180 
237 136 39 40 87 181 
238 136 39 40 87 182 
239 234 40 34 33 145 
240 233 40 94 93 98 
241 229 40 94 95 112 
242 233 40 94 95 96 
243 232 40 39 45 49 
244 233 40 39 45 44 
245 233 40 39 38 41 
246 178 41 38 37 93 
247 182 41 38 37 147 
248 239 41 38 39 45 
249 230 42 43 44 45 
250 230 42 43 44 46 
251 231 42 43 50 154 
252 230 42 43 50 51 
253 233 43 44 45 49 
254 239 43 44 46 52 
255 233 43 44 46 47 
256 239 43 50 51 52 
257 233 43 50 51 56 
258 79 44 43 42 89 
259 240 44 43 50 154 
260 239 44 43 50 51 
261 182 44 45 49 152 
262 182 44 45 49 153 
263 179 44 45 49 48 
264 239 44 46 52 51 
265 233 44 46 52 53 
266 182 44 46 47 148 
267 182 44 46 47 149 
268 179 44 46 47 48 
269 136 45 49 48 151 
270 136 45 49 48 150 
271 101 45 49 48 47 
272 239 45 44 43 50 
273 239 45 44 46 52 
274 233 45 44 46 47 
275 178 45 39 40 94 
276 179 45 39 40 87 
277 239 46 52 51 50 
278 233 46 52 51 56 
279 182 46 52 53 155 
280 182 46 52 53 156 
281 178 46 52 53 54 
282 239 46 44 43 50 
283 233 46 44 45 49 
284 101 46 47 48 49 
285 136 46 47 48 151 
286 136 46 47 48 150 
287 233 47 46 52 51 
288 232 47 46 52 53 
289 121 47 48 49 152 
290 121 47 48 49 153 
291 179 48 47 46 52 
292 121 49 48 47 148 
293 121 49 48 47 149 
294 79 50 43 42 89 
295 233 50 51 52 53 
296 182 50 51 56 157 
297 182 50 51 56 158 
298 178 50 51 56 55 
299 182 51 52 53 155 
300 182 51 52 53 156 
301 178 51 52 53 54 
302 178 51 56 55 57 
303 178 51 56 55 54 
304 240 52 51 50 154 
305 182 52 51 56 157 
306 182 52 51 56 158 
307 178 52 51 56 55 
308 178 52 53 54 60 
309 178 52 53 54 55 
310 182 52 46 47 148 
311 182 52 46 47 149 
312 232 53 52 51 56 
313 233 53 54 60 59 
314 232 53 54 60 61 
315 233 53 54 55 57 
316 232 53 54 55 56 
317 239 54 60 59 58 
318 233 54 60 59 64 
319 178 54 60 61 62 
320 182 54 60 61 159 
321 182 54 60 61 160 
322 239 54 55 57 58 
323 233 54 55 57 76 
324 182 54 55 56 157 
325 182 54 55 56 158 
326 239 55 57 58 59 
327 233 55 57 58 73 
328 182 55 57 76 170 
329 178 55 57 76 75 
330 182 55 57 76 169 
331 239 55 54 60 59 
332 233 55 54 60 61 
333 182 55 54 53 155 
334 182 55 54 53 156 
335 234 56 51 50 154 
336 233 56 55 57 58 
337 232 56 55 57 76 
338 233 56 55 54 60 
339 239 57 58 59 60 
340 233 57 58 59 64 
341 178 57 58 73 74 
342 182 57 58 73 167 
343 182 57 58 73 168 
344 178 57 76 75 74 
345 178 57 76 75 77 
346 239 57 55 54 60 
347 182 57 55 56 157 
348 182 57 55 56 158 
349 182 58 57 76 170 
350 178 58 57 76 75 
351 182 58 57 76 169 
352 233 58 59 60 61 
353 182 58 59 64 161 
354 182 58 59 64 162 
355 178 58 59 64 63 
356 178 58 73 74 75 
357 178 58 73 74 80 
358 233 59 58 57 76 
359 178 59 58 73 74 
360 182 59 58 73 167 
361 182 59 58 73 168 
362 178 59 60 61 62 
363 182 59 60 61 159 
364 182 59 60 61 160 
365 178 59 64 63 65 
366 178 59 64 63 62 
367 233 60 59 58 73 
368 182 60 59 64 161 
369 182 60 59 64 162 
370 178 60 59 64 63 
371 178 60 61 62 68 
372 178 60 61 62 63 
373 182 60 54 53 155 
374 182 60 54 53 156 
375 232 61 60 59 64 
376 233 61 62 68 67 
377 233 61 62 68 69 
378 233 61 62 63 65 
379 232 61 62 63 64 
380 230 62 68 67 66 
381 239 62 68 67 72 
382 240 62 68 69 164 
383 239 62 68 69 70 
384 230 62 63 65 66 
385 240 62 63 65 163 
386 182 62 63 64 161 
387 182 62 63 64 162 
388 244 63 65 66 67 
389 239 63 62 68 67 
390 239 63 62 68 69 
391 182 63 62 61 159 
392 182 63 62 61 160 
393 232 64 59 58 73 
394 229 64 63 65 66 
395 234 64 63 65 163 
396 233 64 63 62 68 
397 244 65 66 67 68 
398 244 65 66 67 72 
399 239 65 63 62 68 
400 182 65 63 64 161 
401 182 65 63 64 162 
402 230 66 67 68 69 
403 231 66 67 72 166 
404 230 66 67 72 71 
405 245 67 66 65 163 
406 240 67 68 69 164 
407 239 67 68 69 70 
408 233 67 72 71 92 
409 239 67 72 71 70 
410 240 68 67 72 166 
411 239 68 67 72 71 
412 240 68 69 70 165 
413 239 68 69 70 71 
414 182 68 62 61 159 
415 182 68 62 61 160 
416 239 69 68 67 72 
417 233 69 70 71 92 
418 239 69 70 71 72 
419 182 70 71 92 185 
420 182 70 71 92 186 
421 182 70 71 92 187 
422 240 70 71 72 166 
423 240 71 70 69 164 
424 182 72 71 92 185 
425 182 72 71 92 186 
426 182 72 71 92 187 
427 240 72 71 70 165 
428 232 73 74 75 76 
429 233 73 74 75 77 
430 232 73 74 80 81 
431 233 73 74 80 79 
432 232 73 58 57 76 
433 182 74 75 76 170 
434 182 74 75 76 169 
435 240 74 75 77 171 
436 239 74 75 77 78 
437 179 74 80 81 82 
438 182 74 80 81 172 
439 182 74 80 81 173 
440 230 74 80 79 84 
441 239 74 80 79 78 
442 182 75 74 73 167 
443 182 75 74 73 168 
444 233 75 74 80 81 
445 239 75 74 80 79 
446 230 75 77 78 90 
447 239 75 77 78 79 
448 233 76 75 74 80 
449 234 76 75 77 171 
450 233 76 75 77 78 
451 239 77 75 74 80 
452 182 77 75 76 170 
453 182 77 75 76 169 
454 98 77 78 90 184 
455 230 77 78 79 84 
456 239 77 78 79 80 
457 81 78 79 84 83 
458 79 78 79 84 91 
459 233 78 79 80 81 
460 39 79 84 83 177 
461 39 79 84 83 176 
462 98 79 78 90 184 
463 240 79 78 77 171 
464 179 79 80 81 82 
465 182 79 80 81 172 
466 182 79 80 81 173 
467 101 80 81 82 83 
468 136 80 81 82 174 
469 136 80 81 82 175 
470 182 80 74 73 167 
471 182 80 74 73 168 
472 81 80 79 84 83 
473 79 80 79 84 91 
474 230 80 79 78 90 
475 121 81 82 83 177 
476 105 81 82 83 84 
477 121 81 82 83 176 
478 229 81 80 79 84 
479 18 82 83 84 91 
480 121 83 82 81 172 
481 121 83 82 81 173 
482 108 84 83 82 174 
483 108 84 83 82 175 
484 228 84 79 78 90 
485 179 87 40 94 93 
486 179 87 40 94 95 
487 231 90 78 77 171 
488 22 91 84 83 177 
489 22 91 84 83 176 
490 234 92 71 70 165 
491 234 92 71 72 166 
492 230 93 98 97 99 
493 239 93 98 97 96 
494 98 93 98 111 127 
495 230 93 94 95 112 
496 239 93 94 95 96 
497 239 94 93 98 97 
498 230 94 93 98 111 
499 182 94 93 37 147 
500 98 94 95 112 128 
501 239 94 95 96 97 
502 230 94 95 96 102 
503 136 94 40 87 180 
504 136 94 40 87 181 
505 136 94 40 87 182 
506 239 95 94 93 98 
507 239 95 96 97 98 
508 230 95 96 97 99 
509 79 95 96 102 114 
510 230 96 97 98 111 
511 79 96 97 99 113 
512 98 96 95 112 128 
513 98 97 98 111 127 
514 79 97 96 102 114 
515 230 97 96 95 112 
516 79 98 97 99 113 
517 230 98 97 96 102 
518 182 98 93 37 147 
519 228 99 97 98 111 
520 228 99 97 96 102 
521 228 99 100 101 102 
522 229 99 100 101 103 
523 168 100 106 105 107 
524 170 100 106 105 104 
525 79 100 101 102 114 
526 182 100 101 103 115 
527 182 100 101 103 116 
528 178 100 101 103 104 
529 178 101 100 106 105 
530 182 101 100 106 117 
531 182 101 100 106 118 
532 79 101 100 99 113 
533 170 101 103 104 105 
534 168 101 103 104 110 
535 229 102 101 100 106 
536 228 102 96 95 112 
537 232 103 101 100 106 
538 216 103 104 105 106 
539 216 103 104 105 107 
540 173 103 104 110 125 
541 171 103 104 110 109 
542 173 103 104 110 126 
543 175 104 105 106 117 
544 175 104 105 106 118 
545 172 104 105 107 108 
546 175 104 105 107 119 
547 175 104 105 107 120 
548 135 104 110 109 124 
549 135 104 110 109 123 
550 256 104 110 109 108 
551 135 105 107 108 121 
552 135 105 107 108 122 
553 256 105 107 108 109 
554 175 105 104 110 125 
555 172 105 104 110 109 