LAMMPS (24 Mar 2022)
include "system.in.init"
units real
atom_style full
bond_style harmonic
angle_style harmonic
dihedral_style opls
improper_style harmonic
pair_style lj/cut/coul/long 11.0 11.0
pair_modify mix geometric
special_bonds lj/coul 0.0 0.0 0.5
kspace_style pppm 0.0001
read_data "system.data"
Reading data file ...
  orthogonal box = (0 0 0) to (100 100 100)
  1 by 2 by 3 MPI processor grid
  reading atoms ...
  102 atoms
  scanning bonds ...
  3 = max bonds/atom
  scanning angles ...
  6 = max angles/atom
  scanning dihedrals ...
  11 = max dihedrals/atom
  scanning impropers ...
  2 = max impropers/atom
  reading bonds ...
  115 bonds
  reading angles ...
  209 angles
  reading dihedrals ...
  335 dihedrals
  reading impropers ...
  42 impropers
Finding 1-2 1-3 1-4 neighbors ...
  special bond factors lj:    0        0        0.5     
  special bond factors coul:  0        0        0.5     
     4 = max # of 1-2 neighbors
     7 = max # of 1-3 neighbors
    20 = max # of 1-4 neighbors
    20 = max # of special neighbors
  special bonds CPU = 0.000 seconds
  read_data CPU = 0.008 seconds
include "system.in.settings"
pair_coeff 1 1 0.0 0.0
pair_coeff 2 2 0.1554 3.16557
pair_coeff 3 3 0.066 3.5
pair_coeff 4 4 0.066 3.5
pair_coeff 5 5 0.066 3.5
pair_coeff 6 6 0.066 3.5
pair_coeff 7 7 0.066 3.5
pair_coeff 8 8 0.03 2.5
pair_coeff 9 9 0.076 3.55
pair_coeff 10 10 0.076 3.55
pair_coeff 11 11 0.076 3.55
pair_coeff 12 12 0.03 2.42
pair_coeff 13 13 0.07 3.55
pair_coeff 14 14 0.07 3.55
pair_coeff 15 15 0.03 2.42
pair_coeff 16 16 0.105 3.75
pair_coeff 17 17 0.21 2.96
pair_coeff 18 18 0.17 3.25
pair_coeff 19 19 0.17 3.25
pair_coeff 20 20 0.17 3.25
pair_coeff 21 21 0.0 0.0
pair_coeff 22 22 0.0 0.0
pair_coeff 23 23 0.105 3.75
pair_coeff 24 24 0.21 2.96
pair_coeff 25 25 0.17 3.0
pair_coeff 26 26 0.0 0.0
pair_coeff 27 27 0.105 3.75
pair_coeff 28 28 0.21 2.96
pair_coeff 29 29 0.066 3.5
pair_coeff 30 30 0.066 3.5
pair_coeff 31 31 0.066 3.5
pair_coeff 32 32 0.066 3.5
pair_coeff 33 33 0.076 3.55
pair_coeff 34 34 0.17 3.25
pair_coeff 35 35 0.066 3.5
pair_coeff 36 36 0.066 3.5
pair_coeff 37 37 0.066 3.5
pair_coeff 38 38 0.066 3.5
pair_coeff 39 39 0.03 2.5
pair_coeff 40 40 0.07 3.55
pair_coeff 41 41 0.17 3.07
pair_coeff 42 42 0.0 0.0
pair_coeff 43 43 0.105 3.75
pair_coeff 44 44 0.21 2.96
pair_coeff 45 45 0.14 2.9
pair_coeff 46 46 0.066 3.5
pair_coeff 47 47 0.066 3.5
pair_coeff 48 48 0.066 3.5
pair_coeff 49 49 0.066 3.5
pair_coeff 50 50 0.03 2.5
pair_coeff 51 51 0.07 3.55
pair_coeff 52 52 0.17 3.12
pair_coeff 53 53 0.0 0.0
pair_coeff 54 54 0.03 2.5
pair_coeff 55 55 0.066 3.5
pair_coeff 56 56 0.066 3.5
pair_coeff 57 57 0.066 3.5
pair_coeff 58 58 0.17 3.25
pair_coeff 59 59 0.07 3.55
pair_coeff 60 60 0.07 3.55
pair_coeff 61 61 0.25 3.55
pair_coeff 62 62 0.07 3.55
pair_coeff 63 63 0.17 3.3
pair_coeff 64 64 0.066 3.5
pair_coeff 65 65 0.0 0.0
pair_coeff 66 66 0.066 3.5
pair_coeff 67 67 0.015 2.5
pair_coeff 68 68 0.0005 4.07
pair_coeff 69 69 0.71 4.02
bond_coeff 1 350.0 1.51
bond_coeff 2 570.0 1.229
bond_coeff 3 450.0 1.364
bond_coeff 4 317.0 1.522
bond_coeff 5 214.0 1.327
bond_coeff 6 300.0 1.79
bond_coeff 7 490.0 1.335
bond_coeff 8 317.0 1.522
bond_coeff 9 340.0 1.09
bond_coeff 10 410.0 1.444
bond_coeff 11 400.0 1.49
bond_coeff 12 656.0 1.25
bond_coeff 13 457.0 1.358
bond_coeff 14 553.0 0.945
bond_coeff 15 320.0 1.41
bond_coeff 16 250.0 1.47
bond_coeff 17 400.0 1.38
bond_coeff 18 320.0 1.45
bond_coeff 19 450.0 1.37
bond_coeff 20 450.0 1.364
bond_coeff 21 553.0 0.945
bond_coeff 22 268.0 1.529
bond_coeff 23 222.0 1.81
bond_coeff 24 320.0 1.41
bond_coeff 25 245.0 1.781
bond_coeff 26 337.0 1.449
bond_coeff 27 382.0 1.448
bond_coeff 28 340.0 1.09
bond_coeff 29 317.0 1.51
bond_coeff 30 317.0 1.51
bond_coeff 31 367.0 1.471
bond_coeff 32 337.0 1.449
bond_coeff 33 166.0 2.038
bond_coeff 34 250.0 1.73
bond_coeff 35 250.0 1.76
bond_coeff 36 250.0 1.76
bond_coeff 37 250.0 1.47
bond_coeff 38 200.0 1.69
bond_coeff 39 320.0 1.45
bond_coeff 40 320.0 1.45
bond_coeff 41 450.0 1.37
bond_coeff 42 450.0 1.364
bond_coeff 43 300.0 1.725
bond_coeff 44 300.0 1.725
bond_coeff 45 434.0 1.01
bond_coeff 46 427.0 1.381
bond_coeff 47 600.0 1.0
bond_coeff 48 350.0 1.445
bond_coeff 49 434.0 1.01
bond_coeff 50 481.0 1.34
bond_coeff 51 434.0 1.01
bond_coeff 52 434.0 1.01
bond_coeff 53 340.0 1.08
bond_coeff 54 549.0 1.34
bond_coeff 55 427.0 1.433
bond_coeff 56 469.0 1.4
bond_coeff 57 367.0 1.08
bond_coeff 58 400.0 1.45
bond_coeff 59 483.0 1.339
bond_coeff 60 500.0 1.32
angle_coeff 1 80.0 121.4
angle_coeff 2 80.0 126.0
angle_coeff 3 80.0 121.0
angle_coeff 4 70.0 108.0
angle_coeff 5 70.0 116.0
angle_coeff 6 80.0 117.2
angle_coeff 7 80.0 120.4
angle_coeff 8 81.0 111.4
angle_coeff 9 83.0 123.4
angle_coeff 10 75.0 109.0
angle_coeff 11 75.0 119.0
angle_coeff 12 70.0 114.2
angle_coeff 13 70.0 116.6
angle_coeff 14 70.0 116.6
angle_coeff 15 80.0 122.9
angle_coeff 16 81.0 111.4
angle_coeff 17 70.0 116.0
angle_coeff 18 80.0 120.4
angle_coeff 19 35.0 115.0
angle_coeff 20 35.0 115.0
angle_coeff 21 35.0 123.0
angle_coeff 22 40.0 114.0
angle_coeff 23 40.0 115.0
angle_coeff 24 40.0 115.0
angle_coeff 25 70.0 115.5
angle_coeff 26 80.0 125.3
angle_coeff 27 35.0 115.0
angle_coeff 28 70.0 115.5
angle_coeff 29 70.0 116.0
angle_coeff 30 70.0 120.0
angle_coeff 31 80.0 120.4
angle_coeff 32 81.0 111.4
angle_coeff 33 85.0 120.0
angle_coeff 34 70.0 117.0
angle_coeff 35 70.0 117.0
angle_coeff 36 80.0 126.0
angle_coeff 37 80.0 126.0
angle_coeff 38 35.0 122.0
angle_coeff 39 80.0 122.5
angle_coeff 40 35.0 113.0
angle_coeff 41 55.0 108.5
angle_coeff 42 49.0 105.4
angle_coeff 43 35.0 109.0
angle_coeff 44 35.0 113.0
angle_coeff 45 63.0 111.1
angle_coeff 46 50.0 109.5
angle_coeff 47 58.35 112.7
angle_coeff 48 63.0 111.1
angle_coeff 49 50.0 114.7
angle_coeff 50 50.0 109.5
angle_coeff 51 50.0 109.5
angle_coeff 52 69.0 109.8
angle_coeff 53 69.0 109.8
angle_coeff 54 78.0 111.7
angle_coeff 55 50.0 109.5
angle_coeff 56 63.0 110.1
angle_coeff 57 80.0 109.7
angle_coeff 58 50.0 114.7
angle_coeff 59 56.2 109.47
angle_coeff 60 80.0 111.2
angle_coeff 61 33.0 107.8
angle_coeff 62 35.0 109.5
angle_coeff 63 35.0 109.5
angle_coeff 64 35.0 109.5
angle_coeff 65 35.0 109.5
angle_coeff 66 35.0 109.5
angle_coeff 67 35.0 109.5
angle_coeff 68 37.5 110.7
angle_coeff 69 51.0 107.6
angle_coeff 70 35.0 109.5
angle_coeff 71 63.0 111.1
angle_coeff 72 63.0 112.4
angle_coeff 73 35.0 109.5
angle_coeff 74 40.0 109.5
angle_coeff 75 40.0 109.5
angle_coeff 76 50.0 109.5
angle_coeff 77 50.0 109.5
angle_coeff 78 50.0 114.7
angle_coeff 79 63.0 112.0
angle_coeff 80 63.0 114.0
angle_coeff 81 80.0 111.2
angle_coeff 82 35.0 109.5
angle_coeff 83 80.0 111.2
angle_coeff 84 80.0 111.2
angle_coeff 85 35.0 109.5
angle_coeff 86 63.0 110.1
angle_coeff 87 65.0 109.0
angle_coeff 88 62.0 98.9
angle_coeff 89 68.0 103.7
angle_coeff 90 62.0 104.2
angle_coeff 91 62.0 104.2
angle_coeff 92 60.0 109.5
angle_coeff 93 83.0 116.9
angle_coeff 94 75.0 111.0
angle_coeff 95 75.0 111.0
angle_coeff 96 75.0 111.0
angle_coeff 97 75.0 111.0
angle_coeff 98 83.0 116.9
angle_coeff 99 70.0 126.4
angle_coeff 100 46.0 115.7
angle_coeff 101 50.0 118.0
angle_coeff 102 50.0 121.9
angle_coeff 103 70.0 112.0
angle_coeff 104 70.0 108.6
angle_coeff 105 35.0 110.2
angle_coeff 106 35.0 119.8
angle_coeff 107 35.0 120.0
angle_coeff 108 38.0 118.4
angle_coeff 109 35.0 119.8
angle_coeff 110 50.0 118.0
angle_coeff 111 50.0 121.9
angle_coeff 112 70.0 118.0
angle_coeff 113 75.0 109.47
angle_coeff 114 51.8 107.2
angle_coeff 115 63.0 111.1
angle_coeff 116 35.0 109.5
angle_coeff 117 43.6 106.4
angle_coeff 118 35.0 116.0
angle_coeff 119 50.0 116.0
angle_coeff 120 50.0 116.0
angle_coeff 121 63.0 112.0
angle_coeff 122 70.0 119.7
angle_coeff 123 70.0 130.0
angle_coeff 124 35.0 114.5
angle_coeff 125 35.0 117.0
angle_coeff 126 35.0 117.0
angle_coeff 127 35.0 119.7
angle_coeff 128 60.0 114.0
angle_coeff 129 35.0 120.0
angle_coeff 130 70.0 123.0
angle_coeff 131 70.0 123.0
angle_coeff 132 70.0 124.0
angle_coeff 133 75.0 121.5
angle_coeff 134 85.0 119.4
angle_coeff 135 85.0 120.7
angle_coeff 136 35.0 123.3
angle_coeff 137 85.0 117.0
angle_coeff 138 85.0 119.7
angle_coeff 139 70.0 119.7
angle_coeff 140 63.0 120.0
angle_coeff 141 70.0 120.0
angle_coeff 142 70.0 120.0
angle_coeff 143 70.0 120.0
angle_coeff 144 70.0 120.0
angle_coeff 145 70.0 120.0
angle_coeff 146 70.0 124.0
angle_coeff 147 75.0 120.0
angle_coeff 148 85.0 119.4
angle_coeff 149 85.0 120.0
angle_coeff 150 35.0 119.1
angle_coeff 151 35.0 120.0
angle_coeff 152 35.0 120.0
angle_coeff 153 70.0 120.0
angle_coeff 154 35.0 116.0
angle_coeff 155 70.0 116.0
angle_coeff 156 70.0 116.0
angle_coeff 157 70.0 120.0
angle_coeff 158 70.0 121.5
angle_coeff 159 70.0 124.0
angle_coeff 160 75.0 120.0
angle_coeff 161 50.0 113.0
angle_coeff 162 43.6 109.5
angle_coeff 163 55.0 114.0
angle_coeff 164 70.0 120.5
angle_coeff 165 35.0 113.0
angle_coeff 166 50.0 118.0
angle_coeff 167 70.0 117.0
angle_coeff 168 70.0 120.5
angle_coeff 169 70.0 117.0
angle_coeff 170 70.0 117.0
dihedral_coeff 1 1.6 3.2 0.0 0.0
dihedral_coeff 2 0.0 0.5 0.0 0.0
dihedral_coeff 3 0.0 0.0 0.0 0.0
dihedral_coeff 4 0.0 0.0 0.0 0.0
dihedral_coeff 5 0.7 -1.5 0.0 0.0
dihedral_coeff 6 -0.5 0.2 0.0 0.0
dihedral_coeff 7 0.8 -0.76 0.0 0.0
dihedral_coeff 8 -0.9 0.3 0.0 0.0
dihedral_coeff 9 0.0 0.0 0.3 0.0
dihedral_coeff 10 3.0 5.5 0.0 0.0
dihedral_coeff 11 0.0 5.0 0.0 0.0
dihedral_coeff 12 1.5 5.5 0.0 0.0
dihedral_coeff 13 -2.0 5.0 0.0 0.0
dihedral_coeff 14 1.5 5.5 0.0 0.0
dihedral_coeff 15 4.0 5.0 0.0 0.0
dihedral_coeff 16 0.0 0.0 0.085 0.0
dihedral_coeff 17 0.0 0.0 0.0 0.0
dihedral_coeff 18 0.0 0.0 0.0 0.0
dihedral_coeff 19 -0.65 0.0 0.0 0.0
dihedral_coeff 20 0.0 0.82 0.0 0.0
dihedral_coeff 21 0.0 0.0 0.0 0.0
dihedral_coeff 22 0.0 0.0 0.0 0.0
dihedral_coeff 23 0.0 0.546 0.0 0.0
dihedral_coeff 24 0.0 1.412 0.0 0.0
dihedral_coeff 25 5.26 0.82 0.0 0.0
dihedral_coeff 26 0.0 0.0 0.0 0.0
dihedral_coeff 27 1.454 -0.144 -0.775 0.0
dihedral_coeff 28 0.0 0.0 0.275 0.0
dihedral_coeff 29 0.0 0.0 -0.553 0.0
dihedral_coeff 30 0.0 0.0 0.132 0.0
dihedral_coeff 31 0.0 0.0 0.0 0.0
dihedral_coeff 32 0.0 0.0 0.36 0.0
dihedral_coeff 33 1.173 0.189 -1.2 0.0
dihedral_coeff 34 0.65 0.0 0.0 0.0
dihedral_coeff 35 1.816 1.222 1.581 0.0
dihedral_coeff 36 0.0 0.0 0.0 0.0
dihedral_coeff 37 0.0 0.0 0.0 0.0
dihedral_coeff 38 0.0 0.0 0.36 0.0
dihedral_coeff 39 0.0 0.0 0.275 0.0
dihedral_coeff 40 0.0 0.82 0.0 0.0
dihedral_coeff 41 0.0 0.82 0.0 0.0
dihedral_coeff 42 0.0 0.0 0.0 0.0
dihedral_coeff 43 0.0 5.124 0.0 0.0
dihedral_coeff 44 0.0 5.0 0.0 0.0
dihedral_coeff 45 4.669 5.124 0.0 0.0
dihedral_coeff 46 1.5 5.0 0.0 0.0
dihedral_coeff 47 -2.0 5.0 0.0 0.0
dihedral_coeff 48 4.669 5.124 0.0 0.0
dihedral_coeff 49 4.0 5.0 0.0 0.0
dihedral_coeff 50 0.4 4.9 0.0 0.0
dihedral_coeff 51 0.0 4.9 0.0 0.0
dihedral_coeff 52 0.0 6.603 0.0 0.0
dihedral_coeff 53 0.0 6.089 0.0 0.0
dihedral_coeff 54 0.0 4.9 0.0 0.0
dihedral_coeff 55 0.0 6.089 0.0 0.0
dihedral_coeff 56 0.0 6.089 0.0 0.0
dihedral_coeff 57 2.3 6.089 0.0 0.0
dihedral_coeff 58 0.0 4.9 0.0 0.0
dihedral_coeff 59 4.542 6.603 1.045 0.0
dihedral_coeff 60 2.3 6.089 0.0 0.0
dihedral_coeff 61 0.0 4.9 0.0 0.0
dihedral_coeff 62 2.3 6.089 0.0 0.0
dihedral_coeff 63 2.3 6.089 0.0 0.0
dihedral_coeff 64 0.0 4.9 0.0 0.0
dihedral_coeff 65 2.3 6.089 0.0 0.0
dihedral_coeff 66 4.6 0.0 0.0 0.0
dihedral_coeff 67 0.0 4.9 0.0 0.0
dihedral_coeff 68 2.3 6.089 0.0 0.0
dihedral_coeff 69 0.0 4.9 0.0 0.0
dihedral_coeff 70 0.0 4.9 0.0 0.0
dihedral_coeff 71 0.0 4.9 0.0 0.0
dihedral_coeff 72 2.3 6.089 0.0 0.0
dihedral_coeff 73 0.9 0.23 -0.505 0.0
dihedral_coeff 74 0.0 0.0 0.0 0.0
dihedral_coeff 75 2.5 6.0 0.0 0.0
dihedral_coeff 76 3.2 -3.0 0.0 0.0
dihedral_coeff 77 0.0 0.0 0.0 0.0
dihedral_coeff 78 2.0 0.0 0.0 0.0
dihedral_coeff 79 0.0 2.1 0.0 0.0
dihedral_coeff 80 0.0 2.1 0.0 0.0
dihedral_coeff 81 0.0 0.2 0.0 0.0
dihedral_coeff 82 0.0 2.1 0.0 0.0
dihedral_coeff 83 0.0 1.1 0.0 0.0
dihedral_coeff 84 0.0 0.2 0.0 0.0
dihedral_coeff 85 0.0 14.0 0.0 0.0
dihedral_coeff 86 0.0 14.0 0.0 0.0
dihedral_coeff 87 0.0 14.0 0.0 0.0
dihedral_coeff 88 0.0 14.0 0.0 0.0
dihedral_coeff 89 -0.356 -0.174 0.492 0.0
dihedral_coeff 90 0.0 0.0 0.352 0.0
dihedral_coeff 91 -0.9 0.0 0.0 0.0
dihedral_coeff 92 -0.9 0.0 0.0 0.0
dihedral_coeff 93 0.0 0.0 0.3 0.0
dihedral_coeff 94 0.0 0.0 0.3 0.0
dihedral_coeff 95 5.519 -6.7 0.581 0.0
dihedral_coeff 96 2.722 -5.154 0.0 0.0
dihedral_coeff 97 0.0 1.682 0.0 0.0
dihedral_coeff 98 0.0 1.682 0.0 0.0
dihedral_coeff 99 3.0 3.0 0.0 0.0
dihedral_coeff 100 -4.344 -1.714 0.0 0.0
dihedral_coeff 101 1.711 -0.5 0.663 0.0
dihedral_coeff 102 1.428 0.086 0.029 0.0
dihedral_coeff 103 -0.55 0.0 1.0 0.0
dihedral_coeff 104 -6.18 0.0 0.0 0.0
dihedral_coeff 105 -2.06 -0.313 0.315 0.0
dihedral_coeff 106 -4.344 -1.714 0.0 0.0
dihedral_coeff 107 -9.0 2.0 0.8 0.0
dihedral_coeff 108 0.0 0.0 -0.1 0.0
dihedral_coeff 109 -1.697 -0.456 0.585 0.0
dihedral_coeff 110 9.508 0.0 0.0 0.0
dihedral_coeff 111 -1.552 0.0 0.0 0.0
dihedral_coeff 112 4.319 0.0 0.0 0.0
dihedral_coeff 113 8.0 0.0 0.0 0.0
dihedral_coeff 114 6.28 -1.467 2.03 0.0
dihedral_coeff 115 0.0 0.0 0.468 0.0
dihedral_coeff 116 1.3 -0.05 0.2 0.0
dihedral_coeff 117 2.619 -0.62 0.258 0.0
dihedral_coeff 118 0.0 0.0 0.4 0.0
dihedral_coeff 119 2.392 -0.674 0.55 0.0
dihedral_coeff 120 0.845 -0.962 0.713 0.0
dihedral_coeff 121 0.0 0.0 0.3 0.0
dihedral_coeff 122 2.732 -0.229 0.485 0.0
dihedral_coeff 123 0.0 0.0 0.452 0.0
dihedral_coeff 124 -0.55 0.0 0.0 0.0
dihedral_coeff 125 0.0 0.0 0.468 0.0
dihedral_coeff 126 -0.25 0.0 0.0 0.0
dihedral_coeff 127 2.0 0.0 0.0 0.0
dihedral_coeff 128 0.0 0.0 0.4 0.0
dihedral_coeff 129 11.035 -0.968 0.27 0.0
dihedral_coeff 130 -1.013 -0.709 0.473 0.0
dihedral_coeff 131 -0.8 0.0 0.0 0.0
dihedral_coeff 132 0.0 0.0 0.464 0.0
dihedral_coeff 133 0.845 -0.962 0.713 0.0
dihedral_coeff 134 0.0 0.0 0.3 0.0
dihedral_coeff 135 0.0 0.0 0.366 0.0
dihedral_coeff 136 0.0 0.0 0.462 0.0
dihedral_coeff 137 0.0 0.0 0.384 0.0
dihedral_coeff 138 1.0 0.0 0.0 0.0
dihedral_coeff 139 0.925 -0.576 0.677 0.0
dihedral_coeff 140 1.941 -0.836 0.935 0.0
dihedral_coeff 141 0.0 0.0 0.647 0.0
dihedral_coeff 142 0.0 0.0 0.558 0.0
dihedral_coeff 143 0.0 0.0 0.647 0.0
dihedral_coeff 144 -0.521 -2.018 1.996 0.0
dihedral_coeff 145 -0.5 -1.5 1.0 0.0
dihedral_coeff 146 -1.22 -0.126 0.422 0.0
dihedral_coeff 147 0.65 -0.25 0.67 0.0
dihedral_coeff 148 0.0 0.0 0.76 0.0
dihedral_coeff 149 0.0 0.0 0.198 0.0
dihedral_coeff 150 0.0 0.0 0.76 0.0
dihedral_coeff 151 0.0 0.0 0.76 0.0
dihedral_coeff 152 0.0 0.0 0.0 0.0
dihedral_coeff 153 -2.365 0.912 -0.85 0.0
dihedral_coeff 154 -1.737 1.251 -3.501 0.0
dihedral_coeff 155 0.0 0.0 0.0 0.0
dihedral_coeff 156 0.0 0.462 0.0 0.0
dihedral_coeff 157 4.753 -0.734 0.0 0.0
dihedral_coeff 158 0.0 0.0 0.0 0.0
dihedral_coeff 159 0.0 0.0 0.0 0.0
dihedral_coeff 160 0.0 0.0 0.0 0.0
dihedral_coeff 161 0.0 0.0 0.0 0.0
dihedral_coeff 162 0.0 0.0 0.0 0.0
dihedral_coeff 163 0.416 -0.128 0.695 0.0
dihedral_coeff 164 -0.19 -0.417 0.418 0.0
dihedral_coeff 165 0.0 0.0 0.56 0.0
dihedral_coeff 166 0.0 0.0 0.4 0.0
dihedral_coeff 167 0.0 0.0 0.56 0.0
dihedral_coeff 168 1.711 -0.5 0.663 0.0
dihedral_coeff 169 0.0 0.0 0.468 0.0
dihedral_coeff 170 0.5 0.0 0.0 0.0
dihedral_coeff 171 2.817 -0.169 0.543 0.0
dihedral_coeff 172 0.346 0.405 -0.904 0.0
dihedral_coeff 173 0.0 0.0 0.3 0.0
dihedral_coeff 174 0.0 0.0 0.318 0.0
dihedral_coeff 175 0.0 0.0 -0.372 0.0
dihedral_coeff 176 0.0 -8.0 0.0 0.0
dihedral_coeff 177 0.0 -8.0 0.0 0.0
dihedral_coeff 178 0.0 0.0 0.0 0.0
dihedral_coeff 179 0.0 0.0 0.0 0.0
dihedral_coeff 180 -0.5 0.5 -0.5 0.0
dihedral_coeff 181 0.0 -0.4 0.0 0.0
dihedral_coeff 182 0.0 0.0 0.0 0.0
dihedral_coeff 183 1.438 -0.124 0.264 0.0
dihedral_coeff 184 0.0 0.0 0.347 0.0
dihedral_coeff 185 0.0 0.0 0.302 0.0
dihedral_coeff 186 0.0 0.0 0.261 0.0
dihedral_coeff 187 0.0 0.0 0.462 0.0
dihedral_coeff 188 0.0 -7.414 1.705 0.0
dihedral_coeff 189 0.0 0.6 0.0 0.0
dihedral_coeff 190 1.6 5.1 0.0 0.0
dihedral_coeff 191 0.0 0.0 0.3 0.0
dihedral_coeff 192 0.0 0.0 0.3 0.0
dihedral_coeff 193 0.65 -0.25 0.67 0.0
dihedral_coeff 194 0.0 0.0 0.76 0.0
dihedral_coeff 195 -3.5 3.0 0.0 0.0
dihedral_coeff 196 0.0 2.5 0.0 0.0
dihedral_coeff 197 0.0 3.0 0.0 0.0
dihedral_coeff 198 0.4 5.5 0.0 0.0
dihedral_coeff 199 3.0 3.0 0.0 0.0
dihedral_coeff 200 0.0 2.1 0.0 0.0
dihedral_coeff 201 0.0 2.1 0.0 0.0
dihedral_coeff 202 0.0 2.1 0.0 0.0
dihedral_coeff 203 0.0 2.1 0.0 0.0
dihedral_coeff 204 0.0 0.0 0.3 0.0
dihedral_coeff 205 0.0 0.0 0.3 0.0
dihedral_coeff 206 0.0 0.0 0.3 0.0
dihedral_coeff 207 -7.582 3.431 3.198 0.0
dihedral_coeff 208 0.0 2.03 0.0 0.0
dihedral_coeff 209 0.0 -8.0 0.0 0.0
dihedral_coeff 210 0.0 -8.0 0.0 0.0
dihedral_coeff 211 0.0 14.0 0.0 0.0
dihedral_coeff 212 0.0 14.0 0.0 0.0
dihedral_coeff 213 0.0 14.0 0.0 0.0
dihedral_coeff 214 0.0 14.0 0.0 0.0
dihedral_coeff 215 0.0 14.0 0.0 0.0
dihedral_coeff 216 0.0 14.0 0.0 0.0
dihedral_coeff 217 0.0 14.0 0.0 0.0
dihedral_coeff 218 0.0 14.0 0.0 0.0
dihedral_coeff 219 0.0 14.0 0.0 0.0
dihedral_coeff 220 -1.6 14.0 0.0 0.0
dihedral_coeff 221 0.0 14.0 0.0 0.0
dihedral_coeff 222 0.0 14.0 0.0 0.0
dihedral_coeff 223 0.0 14.0 0.0 0.0
dihedral_coeff 224 0.205 -0.531 0.0 0.0
dihedral_coeff 225 0.0 0.0 -0.372 0.0
dihedral_coeff 226 0.0 0.0 -0.372 0.0
dihedral_coeff 227 1.241 3.353 -0.286 0.0
dihedral_coeff 228 0.0 7.25 0.0 0.0
dihedral_coeff 229 0.0 7.25 0.0 0.0
dihedral_coeff 230 0.0 7.25 0.0 0.0
dihedral_coeff 231 0.0 7.25 0.0 0.0
dihedral_coeff 232 0.0 7.25 0.0 0.0
dihedral_coeff 233 0.0 7.25 0.0 0.0
dihedral_coeff 234 0.0 7.25 0.0 0.0
dihedral_coeff 235 0.0 7.25 0.0 0.0
dihedral_coeff 236 0.0 7.25 0.0 0.0
dihedral_coeff 237 0.0 7.25 0.0 0.0
dihedral_coeff 238 0.0 7.25 0.0 0.0
dihedral_coeff 239 0.0 7.25 0.0 0.0
dihedral_coeff 240 0.0 7.25 0.0 0.0
dihedral_coeff 241 0.0 7.25 0.0 0.0
dihedral_coeff 242 0.0 0.0 0.0 0.0
dihedral_coeff 243 0.0 7.25 0.0 0.0
dihedral_coeff 244 0.0 7.25 0.0 0.0
dihedral_coeff 245 0.0 7.25 0.0 0.0
dihedral_coeff 246 0.0 7.25 0.0 0.0
dihedral_coeff 247 0.0 7.25 0.0 0.0
dihedral_coeff 248 0.0 7.25 0.0 0.0
dihedral_coeff 249 1.816 1.222 1.581 0.0
dihedral_coeff 250 0.0 0.82 0.0 0.0
dihedral_coeff 251 1.0 0.0 0.0 0.0
dihedral_coeff 252 6.28 -1.467 2.03 0.0
dihedral_coeff 253 1.428 0.086 0.029 0.0
dihedral_coeff 254 1.438 -0.124 0.264 0.0
dihedral_coeff 255 1.3 -0.05 0.2 0.0
dihedral_coeff 256 1.3 -0.05 0.2 0.0
improper_coeff 1 10.5 0.000000
improper_coeff 2 10.5 0.000000
improper_coeff 3 1.0 0.000000
improper_coeff 4 15.0 0.000000
improper_coeff 5 1.1 0.000000

thermo_style custom step temp pe etotal press time
thermo 100

variable T equal 300
velocity all create $T 182398412
velocity all create 300 182398412


timestep 0.05
fix  fxnvt all nvt temp $T $T 10.0
fix  fxnvt all nvt temp 300 $T 10.0
fix  fxnvt all nvt temp 300 300 10.0
run  3000
PPPM initialization ...
  using 12-bit tables for long-range coulomb (../kspace.cpp:340)
  G vector (1/distance) = 0.092609207
  grid = 8 8 8
  stencil order = 5
  estimated absolute RMS force accuracy = 0.03309473
  estimated relative force accuracy = 9.9663797e-05
  using double precision KISS FFT
  3d grid and FFT values/proc = 936 128
  generated 2346 of 2346 mixed pair_coeff terms from geometric mixing rule
Neighbor list info ...
  update every 1 steps, delay 10 steps, check yes
  max neighbors/atom: 2000, page size: 100000
  master list distance cutoff = 13
  ghost atom cutoff = 13
  binsize = 6.5, bins = 16 16 16
  1 neighbor lists, perpetual/occasional/extra = 1 0 0
  (1) pair lj/cut/coul/long, perpetual
      attributes: half, newton on
      pair build: half/bin/newton
      stencil: half/bin/3d
      bin: standard
Per MPI rank memory allocation (min/avg/max) = 13.43 | 13.64 | 14.23 Mbytes
   Step          Temp          PotEng         TotEng         Press           Time     
         0   300            161.52165      251.84019      30.381898      0            
       100   251.80148      176.71064      252.51845      31.167832      5            
       200   246.18421      186.04056      260.15723      14.383572      10           
       300   281.55172      186.09391      270.85838      5.6227913      15           
       400   254.79094      198.56901      275.27684      1.6883061      20           
       500   263.06535      201.36312      280.56205     -13.909463      25           
       600   287.30875      200.49612      286.99381     -2.0913369      30           
       700   324.59136      194.86451      292.58658     -12.609245      35           
       800   313.64388      199.52463      293.95082      8.9106675      40           
       900   312.08654      199.53678      293.49412     -3.8856766      45           
      1000   326.27571      193.64567      291.87483      1.6998275      50           
      1100   303.17334      194.62974      285.90365     -10.702728      55           
      1200   278.26955      193.8951       277.67144     -9.2151366      60           
      1300   291.22201      183.84766      271.52349     -6.4703403      65           
      1400   241.84359      196.12661      268.93648     -10.267039      70           
      1500   306.36018      179.58507      271.81842      1.558866       75           
      1600   268.71511      194.85424      275.75409     -9.7502062      80           
      1700   333.20057      183.1806       283.49457      8.3431213      85           
      1800   304.25878      196.68441      288.28511     -8.5704685      90           
      1900   325.92742      191.29121      289.41551      4.9886146      95           
      2000   292.0412       200.2511       288.17356     -9.404387       100          
      2100   317.7089       192.22229      287.87231     -4.9264934      105          
      2200   299.7501       195.56397      285.80728     -9.7113568      110          
      2300   281.19428      199.2428       283.89966     -9.792928       115          
      2400   298.46976      192.65806      282.51591     -7.0616337      120          
      2500   285.34008      195.03666      280.94166     -18.683798      125          
      2600   299.74032      189.06239      279.30276     -6.6548631      130          
      2700   281.173        192.57781      277.22826     -7.6256086      135          
      2800   292.48693      187.13116      275.18781      13.336079      140          
      2900   278.55374      190.3252       274.1871       1.8016436      145          
      3000   309.91855      184.33214      277.63678      9.0058741      150          
Loop time of 0.379161 on 6 procs for 3000 steps with 102 atoms

Performance: 34.181 ns/day, 0.702 hours/ns, 7912.202 timesteps/s
99.6% CPU use with 6 MPI tasks x no OpenMP threads

MPI task timing breakdown:
Section |  min time  |  avg time  |  max time  |%varavg| %total
---------------------------------------------------------------
Pair    | 0.00010507 | 0.016495   | 0.081908   |  23.0 |  4.35
Bond    | 0.00014729 | 0.019218   | 0.085148   |  21.8 |  5.07
Kspace  | 0.18313    | 0.29995    | 0.33652    |   9.8 | 79.11
Neigh   | 7.7292e-05 | 7.9556e-05 | 8.1875e-05 |   0.0 |  0.02
Comm    | 0.00029469 | 0.022815   | 0.041758   |  11.4 |  6.02
Output  | 0.00024659 | 0.00030808 | 0.00053333 |   0.0 |  0.08
Modify  | 0.0044159  | 0.016503   | 0.038827   |  12.1 |  4.35
Other   |            | 0.003797   |            |       |  1.00

Nlocal:             17 ave          61 max           0 min
Histogram: 3 0 1 1 0 0 0 0 0 1
Nghost:        116.333 ave         194 max           0 min
Histogram: 2 0 0 0 0 0 0 1 0 3
Neighs:        717.833 ave        3625 max           0 min
Histogram: 4 1 0 0 0 0 0 0 0 1

Total # of neighbors = 4307
Ave neighs/atom = 42.22549
Ave special neighs/atom = 12.019608
Neighbor list builds = 1
Dangerous builds = 0
unfix fxnvt
write_data relaxed.data
System init for write_data ...
PPPM initialization ...
  using 12-bit tables for long-range coulomb (../kspace.cpp:340)
  G vector (1/distance) = 0.092609207
  grid = 8 8 8
  stencil order = 5
  estimated absolute RMS force accuracy = 0.03309473
  estimated relative force accuracy = 9.9663797e-05
  using double precision KISS FFT
  3d grid and FFT values/proc = 936 128
  generated 2346 of 2346 mixed pair_coeff terms from geometric mixing rule

reset_timestep 0
timestep 1
fix  fxnvt all nvt temp $T $T 100.0
fix  fxnvt all nvt temp 300 $T 100.0
fix  fxnvt all nvt temp 300 300 100.0

# dump every 1 ps
dump d1 all custom 10000 system.lammpstrj id mol type x y z vx vy vz ix iy iz


variable    epoch loop 50
label       loop
print       "EPOCH = ${epoch}"
EPOCH = 1
run         100000  # 100 ps each time
PPPM initialization ...
  using 12-bit tables for long-range coulomb (../kspace.cpp:340)
  G vector (1/distance) = 0.092609207
  grid = 8 8 8
  stencil order = 5
  estimated absolute RMS force accuracy = 0.03309473
  estimated relative force accuracy = 9.9663797e-05
  using double precision KISS FFT
  3d grid and FFT values/proc = 936 128
  generated 2346 of 2346 mixed pair_coeff terms from geometric mixing rule
Per MPI rank memory allocation (min/avg/max) = 13.69 | 14.56 | 15.48 Mbytes
   Step          Temp          PotEng         TotEng         Press           Time     
         0   309.91855      184.33214      277.63678      9.0058741      0            
       100   338.47819      178.10767      280.01053      2.960899       100          
       200   288.93029      192.29307      279.27895      7.4309571      200          
       300   302.60213      171.60748      262.70942      2.3544972      300          
       400   283.66843      171.90928      257.31101     -5.2883589      400          
       500   281.84865      180.94306      265.79692      0.45210432     500          
       600   322.10797      183.69331      280.66772     -6.41615        600          
       700   319.96479      184.12494      280.45412      4.0061847      700          
       800   252.32187      199.62372      275.5882      -2.7871198      800          
       900   285.82442      186.58072      272.63154     -23.314871      900          
      1000   304.01507      176.37302      267.90034      13.666136      1000         
      1100   310.03379      180.34458      273.68391     -10.510305      1100         
      1200   335.76261      192.51059      293.59589      10.780277      1200         
      1300   318.24636      196.3463       292.15813     -9.3645694      1300         
      1400   299.96396      185.0316       275.3393      -5.7935766      1400         
      1500   303.02501      179.48921      270.71847      11.207011      1500         
      1600   294.66442      182.63933      271.35154     -9.282225       1600         
      1700   326.15677      179.00777      277.20112     -1.3991716      1700         
      1800   334.04634      185.57587      286.14447      1.2749039      1800         
      1900   376.62345      194.96577      308.35271     -0.65409996     1900         
      2000   367.4675       184.65721      295.28764      12.680241      2000         
      2100   281.37907      192.59459      277.30709     -5.8804503      2100         
      2200   297.12384      176.57209      266.02473      3.1581312      2200         
      2300   279.63521      178.09707      262.28456      9.3191152      2300         
      2400   281.20337      186.59749      271.25709     -6.5127441      2400         
      2500   295.82211      198.27208      287.33282     -10.755519      2500         
      2600   313.08124      192.18822      286.44502      4.7948153      2600         
      2700   316.36992      181.24239      276.48929      5.5257606      2700         
      2800   306.57963      180.4605       272.75992     -12.613511      2800         
      2900   265.30503      193.33636      273.20957      5.8875909      2900         
      3000   284.34348      191.96467      277.56963      2.6168613      3000         
      3100   317.5126       186.42682      282.01774      10.008774      3100         
      3200   302.70902      185.93766      277.07179      8.3769795      3200         
      3300   261.17448      175.35313      253.98279     -0.74791014     3300         
      3400   266.62814      173.27236      253.54392     -4.6016718      3400         
      3500   304.12544      174.10883      265.66939      2.5432094      3500         
      3600   308.02676      180.09066      272.82576     -0.57223812     3600         
      3700   271.89978      193.43712      275.29576     -17.85038       3700         
      3800   302.22186      182.9177       273.90516      7.1850488      3800         
      3900   300.52185      180.32691      270.80256      7.9002681      3900         
      4000   282.21764      181.95372      266.91867     -3.6847527      4000         
      4100   272.7519       180.11025      262.22543      8.6274298      4100         
      4200   324.77801      158.062        255.84026      4.7389219      4200         
      4300   275.61621      177.42558      260.40309      8.405975       4300         
      4400   330.2259       178.81722      278.23563     -4.8440762      4400         
      4500   306.09572      193.06808      285.22181     -13.79173       4500         
      4600   308.83134      189.75832      282.73565     -12.588135      4600         
      4700   313.73887      177.82693      272.28173      4.7793508      4700         
      4800   271.34463      174.6982       256.38971      11.410367      4800         
      4900   268.20443      175.45695      256.20306      6.9793225      4900         
      5000   269.04097      182.92366      263.92163      8.8610552      5000         
      5100   304.89031      180.76633      272.55716      21.50875       5100         
      5200   299.56816      188.37924      278.56777     -11.911871      5200         
      5300   320.29249      184.59217      281.02        -4.2609566      5300         
      5400   275.12383      186.35918      269.18846     -18.214284      5400         
      5500   266.90462      178.75275      259.10754     -8.082879       5500         
      5600   314.18727      172.39488      266.98467     -0.090397766    5600         
      5700   322.74629      184.21496      281.38155     -5.5178831      5700         
      5800   319.59901      185.71475      281.93381      10.234439      5800         
      5900   294.3542       185.79943      274.41824      3.9758248      5900         
      6000   272.40911      185.67009      267.68207     -4.080624       6000         
      6100   316.68491      173.30682      268.64856      1.8143488      6100         
      6200   321.04691      178.58429      275.23925     -1.7805911      6200         
      6300   329.20834      190.34424      289.4563      -0.94524951     6300         
      6400   343.9313       186.37688      289.92146     -18.924539      6400         
      6500   272.49879      187.33643      269.37541     -8.1313494      6500         
      6600   320.69733      171.52293      268.07266     -1.9660393      6600         
      6700   351.64635      161.46502      267.33231     -2.8110133      6700         
      6800   314.24745      176.59696      271.20487     -1.7704491      6800         
      6900   256.67231      201.26025      278.53449     -6.7650419      6900         
      7000   318.80677      192.93272      288.91326     -6.1851286      7000         
      7100   319.17731      181.43366      277.52576     -0.3725652      7100         
      7200   284.08691      179.02316      264.55088      9.317801       7200         
      7300   322.05338      168.71734      265.67531     -8.1810723      7300         
      7400   302.97708      182.00008      273.21491      3.5379714      7400         
      7500   318.813        185.24007      281.22249     -9.9731663      7500         
      7600   317.44862      183.55933      279.13099     -1.8612861      7600         
      7700   296.17471      185.77849      274.94539      1.2901921      7700         
      7800   294.14386      182.57112      271.1266       2.8973227      7800         
      7900   287.90138      175.68609      262.3622      -0.93746951     7900         
      8000   258.70783      175.11673      253.00378      1.0478896      8000         
      8100   264.72875      174.33088      254.0306      -2.533391       8100         
      8200   300.28162      182.20367      272.607        14.530397      8200         
      8300   338.5431       179.14678      281.06918     -8.8648594      8300         
      8400   314.77331      183.25942      278.02564      14.049473      8400         
      8500   283.41507      179.22269      264.54815     -4.5374006      8500         
      8600   283.8235       167.60272      253.05113      2.8946723      8600         
      8700   295.85829      166.99919      256.07083     -3.4725112      8700         
      8800   336.15668      180.14121      281.34515      1.5965032      8800         
      8900   330.34761      179.0999       278.55495     -10.558341      8900         
      9000   293.44994      181.16541      269.51198     -5.2149317      9000         
      9100   278.86416      179.25634      263.21169      1.24887        9100         
      9200   290.56503      174.60656      262.0846       14.847749      9200         
      9300   299.03365      192.73913      282.76674      1.4253049      9300         
      9400   347.15783      180.84437      285.36033      12.049127      9400         
      9500   316.1855       181.1279       276.31928     -10.821684      9500         
      9600   283.47044      182.15599      267.49812      1.3920913      9600         
      9700   284.59753      179.83614      265.51759     -9.2958008      9700         
      9800   301.1443       177.0116       267.67465      0.0093060429   9800         
      9900   304.87712      182.93279      274.71965     -7.9758859      9900         
     10000   347.67659      186.4071       291.07925      5.7719316      10000        
     10100   380.75582      189.77075      304.40179      22.972906      10100        
     10200   296.37976      194.08334      283.31197      6.6606627      10200        
     10300   315.39836      177.98459      272.93899      14.119391      10300        
     10400   289.70996      182.29785      269.51846      15.823956      10400        
     10500   286.58145      181.70418      267.98291     -5.2525793      10500        
     10600   287.4337       173.99602      260.53133     -12.922266      10600        
     10700   271.89215      175.57656      257.4329      -8.8899109      10700        
     10800   300.40547      178.81373      269.25435      0.59885793     10800        
     10900   330.13185      184.21572      283.60581     -6.0520864      10900        
     11000   294.04836      193.04993      281.57666     -5.5026472      11000        
     11100   283.26415      187.13677      272.41679      4.8697999      11100        
     11200   249.19535      180.0507       255.0739       4.4074038      11200        
     11300   275.30477      169.74586      252.62962      1.8273735      11300        
     11400   263.09187      183.22851      262.43542     -17.545439      11400        
     11500   268.59897      188.85603      269.72092     -2.4739639      11500        
     11600   329.62488      175.66273      274.9002      -12.05628       11600        
     11700   309.73325      184.29982      277.54868     -5.1605261      11700        
     11800   276.489        182.25751      265.4978       0.34428762     11800        
     11900   299.79089      163.72162      253.97721     -2.8766831      11900        
     12000   252.29489      184.49587      260.45223      15.891006      12000        
     12100   324.83419      178.01223      275.8074       2.9339057      12100        
     12200   313.18654      182.38658      276.67509     -11.363943      12200        
     12300   300.38391      179.84162      270.27574      10.344649      12300        
     12400   288.40116      175.47628      262.30285     -5.3199439      12400        
     12500   253.19348      171.91441      248.14129      7.8942318      12500        
     12600   243.14007      167.94208      241.14227     -6.5448299      12600        
     12700   286.93995      171.98511      258.37177      6.7076381      12700        
     12800   242.86194      195.73772      268.85418      3.3346949      12800        
     12900   306.47921      186.64539      278.91458     -2.5382848      12900        
     13000   323.25604      183.60908      280.92913     -12.087639      13000        
     13100   282.66301      190.95882      276.05786      16.919189      13100        
     13200   272.23304      180.69746      262.65643     -11.009349      13200        
     13300   280.80534      171.37162      255.91138      1.5259289      13300        
     13400   272.21848      189.809        271.76359     -12.560939      13400        
     13500   326.76398      184.14356      282.51971      8.2265429      13500        
     13600   297.26148      186.54968      276.04376      1.7086327      13600        
     13700   297.06173      179.69265      269.12659     -0.18072036     13700        
     13800   287.38209      176.67188      263.19166     -7.891709       13800        
     13900   298.6219       172.42694      262.33059     -6.8767275      13900        
     14000   276.19888      195.77619      278.92913     -17.097828      14000        
     14100   307.38604      195.98294      288.52514      1.7631257      14100        
     14200   318.34002      188.22805      284.06808      5.1794945      14200        
     14300   307.15342      179.57421      272.04637      4.67403        14300        
     14400   245.48003      185.49548      259.40015      14.895841      14400        
     14500   304.17951      171.0563       262.63313     -3.4787011      14500        
     14600   312.49534      174.08829      268.1687       5.0298108      14600        
     14700   317.96279      174.36589      270.09234      8.0279956      14700        
     14800   293.03997      183.82802      272.05117     -11.705526      14800        
     14900   331.24764      192.8298       292.55581      8.7303157      14900        
     15000   338.79384      200.84203      302.83992     -18.664475      15000        
     15100   312.8092       195.19934      289.37425      11.71764       15100        
     15200   277.76658      192.40421      276.02912      15.2846        15200        
     15300   307.26166      178.24946      270.75421      0.25659975     15300        
     15400   286.83233      177.94503      264.2993       5.5948008      15400        
     15500   312.74269      166.1017       260.25659     -7.3225131      15500        
     15600   292.02977      176.79331      264.71233     -17.444425      15600        
     15700   324.01421      181.9604       279.50871      6.8595222      15700        
     15800   311.16134      190.36296      284.04175      2.5798683      15800        
     15900   316.10328      179.61148      274.77811      3.518922       15900        
     16000   267.43739      177.98403      258.49922      9.722967       16000        
     16100   274.53275      175.95252      258.60385     -17.623179      16100        
     16200   351.613        160.6194       266.47664      11.228237      16200        
     16300   284.82371      185.77929      271.52884     -13.622094      16300        
     16400   316.05702      178.99225      274.14495      2.9810598      16400        
     16500   296.5657       178.51438      267.79899     -1.4257382      16500        
     16600   251.84709      170.49813      246.31967     -9.0987513      16600        
     16700   303.52209      160.77989      252.1588      -0.16362404     16700        
     16800   297.49846      175.43097      264.9964      -2.1626906      16800        
     16900   304.469        180.95432      272.61831     -1.5817566      16900        
     17000   336.0116       177.73345      278.89371     -0.37075275     17000        
     17100   285.26316      194.882        280.76385     -0.016367552    17100        
     17200   253.28025      182.96412      259.21713      0.50619466     17200        
     17300   251.37878      180.17532      255.85587     -7.5108972      17300        
     17400   311.42952      171.61302      265.37255     -9.3471446      17400        
     17500   284.08213      188.37556      273.90184     -0.5903066      17500        
     17600   283.86595      189.82106      275.28225     -4.1587777      17600        
     17700   298.30628      179.62509      269.43372     -2.2007701      17700        
     17800   268.71419      181.97546      262.87504     -1.7932467      17800        
     17900   262.12094      166.34011      245.25471      0.15718388     17900        
     18000   266.26486      171.94926      252.11144     -9.00284        18000        
     18100   323.78559      169.57785      267.05732      0.86867528     18100        
     18200   288.83585      187.59476      274.55221      3.855052       18200        
     18300   307.86231      188.46903      281.15462      4.3678736      18300        
     18400   304.93414      186.10059      277.90462      1.9842575      18400        
     18500   272.0524       176.50858      258.41317      3.7061821      18500        
     18600   257.88401      179.98305      257.62208      1.8913577      18600        
     18700   269.37738      183.5914       264.69065     -1.6643539      18700        
     18800   263.79261      198.42774      277.84562      9.6628594      18800        
     18900   315.9493       184.12773      279.248       -10.910963      18900        
     19000   314.93616      179.54726      274.36251      10.84409       19000        
     19100   267.3322       190.45303      270.93655     -11.312103      19100        
     19200   266.83472      179.36271      259.69646      7.4808771      19200        
     19300   276.67616      170.35864      253.65527     -1.7938351      19300        
     19400   282.57939      179.32634      264.4002       4.3752048      19400        
     19500   351.39772      172.90938      278.70182      5.916817       19500        
     19600   318.36668      181.66516      277.51321     -7.2161305      19600        
     19700   284.23069      183.84847      269.41948      1.6955412      19700        
     19800   272.26812      180.80992      262.77945      2.3247026      19800        
     19900   278.65885      176.47452      260.36806     -3.046511       19900        
     20000   305.02469      178.92743      270.75872      8.1695839      20000        
     20100   333.97406      183.22298      283.76981     -8.7574637      20100        
     20200   311.32288      184.57742      278.30485      7.2484418      20200        
     20300   267.33237      185.92326      266.40683     -9.2673729      20300        
     20400   271.14076      178.98682      260.61695     -9.8086813      20400        
     20500   322.07203      166.2772       263.24079      4.2648449      20500        
     20600   313.83125      174.47716      268.95976      10.569179      20600        
     20700   278.91029      188.93812      272.90736     -2.5389342      20700        
     20800   300.93523      183.37037      273.97047     -4.898584       20800        
     20900   310.19511      170.68681      264.07472     -0.66920379     20900        
     21000   288.62654      166.22547      253.11989      0.98759332     21000        
     21100   300.434        169.39869      259.8479       3.5094865      21100        
     21200   306.58261      180.65831      272.95863     -8.1072686      21200        
     21300   293.78901      188.98155      277.4302       15.40835       21300        
     21400   298.37194      182.0288       271.8572       9.4726372      21400        
     21500   267.24866      175.19938      255.65775      2.5259086      21500        
     21600   239.94766      174.81227      247.05135     -3.3910853      21600        
     21700   281.38867      181.54313      266.25851     -2.0846712      21700        
     21800   290.35588      191.97656      279.39163      10.889279      21800        
     21900   353.87109      179.3657       285.90278      7.5932343      21900        
     22000   302.05156      185.99764      276.93383     -11.450502      22000        
     22100   303.74331      172.43897      263.88449     -4.5931002      22100        
     22200   289.73524      172.08155      259.30977      1.7957204      22200        
     22300   290.89231      180.50894      268.08551     -7.3414806      22300        
     22400   349.08115      182.007        287.10201      14.057564      22400        
     22500   315.28263      187.67813      282.59769     -1.8983374      22500        
     22600   293.14012      185.83262      274.08592      0.30821918     22600        
     22700   308.2072       176.80831      269.59773     -4.2263954      22700        
     22800   282.83108      180.92334      266.07298      2.6842846      22800        
     22900   333.7396       170.76657      271.24282     -13.529893      22900        
     23000   308.53931      188.86787      281.75728     -14.927674      23000        
     23100   326.1999       186.15606      284.36239     -9.5624676      23100        
     23200   308.23166      175.42157      268.21835     -5.3134673      23200        
     23300   294.24032      170.62774      259.21227      0.35449132     23300        
     23400   298.19874      170.54594      260.32219      0.57836717     23400        
     23500   297.42955      180.37189      269.91657      4.7174533      23500        
     23600   313.05548      179.9409       274.18995     -8.8844921      23600        
     23700   294.14847      186.6242       275.18107      14.650116      23700        
     23800   305.27004      180.54584      272.45099     -4.4578462      23800        
     23900   318.16019      170.20919      265.99508     -2.0506104      23900        
     24000   283.16443      168.40862      253.65861     -1.1842892      24000        
     24100   312.32618      158.3092       252.33869      13.959195      24100        
     24200   314.22507      173.16572      267.76689      7.7822002      24200        
     24300   319.59568      180.93403      277.15209      3.1367914      24300        
     24400   295.64051      186.62457      275.63064     -9.0848387      24400        
     24500   286.7838       183.32165      269.6613      -2.5284619      24500        
     24600   295.92206      167.57981      256.67064     -5.264533       24600        
     24700   249.9829       176.68848      251.94879      2.4307998      24700        
     24800   313.99414      171.63874      266.17038     -1.7245806      24800        
     24900   280.41221      190.17563      274.59704      9.3312667      24900        
     25000   327.21179      175.71861      274.22958      4.1687071      25000        
     25100   290.49714      184.92556      272.38315      8.1874555      25100        
     25200   297.07537      176.25197      265.69002      12.0068        25200        
     25300   237.10823      183.53918      254.92341      10.134004      25300        
     25400   278.43201      171.98948      255.81473      7.3432986      25400        
     25500   290.1649       190.72608      278.08365      0.6405092      25500        
     25600   315.59692      188.69044      283.70462     -9.7837398      25600        
     25700   333.05417      176.18743      276.45732     -8.7817165      25700        
     25800   263.01161      185.11428      264.29703     -6.0343524      25800        
     25900   314.95267      163.357        258.17722      0.065062804    25900        
     26000   280.63172      178.34809      262.83558     -5.845942       26000        
     26100   298.93768      190.28862      280.28734      7.4335936      26100        
     26200   298.27108      195.31264      285.11068     -6.4014839      26200        
     26300   317.72382      177.28106      272.93557      0.44499051     26300        
     26400   293.54577      172.58557      260.961        0.2044831      26400        
     26500   261.62791      186.90159      265.66777      2.9936319      26500        
     26600   295.93841      186.25081      275.34657      4.5695706      26600        
     26700   303.8999       184.513        276.00566     -10.042211      26700        
     26800   296.90333      183.40699      272.79324      8.7507469      26800        
     26900   331.96127      169.14529      269.08615      5.6907083      26900        
     27000   271.69302      179.90912      261.70552     -4.5250441      27000        
     27100   299.96545      162.48484      252.79298      3.9501365      27100        
     27200   280.75491      173.61006      258.13465      6.2099482      27200        
     27300   333.10202      177.48362      277.76792     -12.664055      27300        
     27400   317.08243      186.80005      282.26146     -1.9463975      27400        
     27500   278.39217      192.66063      276.47388      3.1707749      27500        
     27600   273.04611      183.6008       265.80456     -11.105594      27600        
     27700   290.43375      164.07654      251.51505      5.8952929      27700        
     27800   255.72215      173.25963      250.24781      2.0943794      27800        
     27900   300.24577      183.66735      274.05988     -9.284688       27900        
     28000   286.39673      192.78726      279.01038      4.6423078      28000        
     28100   298.45981      182.55765      272.4125       7.563137       28100        
     28200   317.0014       169.23119      264.66821      13.181859      28200        
     28300   275.34479      179.26188      262.15768      0.8037916      28300        
     28400   283.0014       183.48417      268.68508     -10.369446      28400        
     28500   314.26269      192.12413      286.73663      9.3028049      28500        
     28600   324.5648       191.23697      288.95103      6.7288353      28600        
     28700   299.79398      188.99707      279.25359     -1.0921482      28700        
     28800   299.83518      176.1816       266.45052      12.148215      28800        
     28900   297.34616      177.33092      266.8505       2.0597854      28900        
     29000   286.05194      181.24326      267.36258     -0.24942773     29000        
     29100   334.54612      172.94593      273.66499      2.2987953      29100        
     29200   349.22352      181.86728      287.00514      2.6128799      29200        
     29300   346.85226      198.94002      303.36399     -14.311484      29300        
     29400   338.21584      185.80841      287.63229     -15.854142      29400        
     29500   273.07192      193.58429      275.79582     -6.3734078      29500        
     29600   295.88944      185.16599      274.247        2.4367636      29600        
     29700   323.78793      174.67915      272.15933      5.4683166      29700        
     29800   304.22785      182.80966      274.40104      1.9111459      29800        
     29900   313.57053      180.94117      275.34529      8.2445476      29900        
     30000   292.74262      181.87326      270.00689      11.965727      30000        
     30100   286.66361      173.89285      260.19632      6.0071572      30100        
     30200   288.54018      174.90058      261.76901     -1.4186042      30200        
     30300   296.98043      189.13211      278.54158     -4.3897761      30300        
     30400   324.7798       188.32607      286.10487      5.3381876      30400        
     30500   338.29712      177.1391       278.98745     -2.3290359      30500        
     30600   323.17363      172.11935      269.41459     -8.0882758      30600        
     30700   280.64978      183.79723      268.29016      2.7859898      30700        
     30800   270.12588      190.00051      271.3251      -0.44596119     30800        
     30900   283.06584      188.75622      273.97654     -4.1861571      30900        
     31000   328.39138      175.4075       274.2736      -5.5800711      31000        
     31100   294.49991      176.86218      265.52486      6.6269777      31100        
     31200   292.78646      170.45801      258.60483     -7.0042418      31200        
     31300   268.17723      182.04273      262.78065      5.2796579      31300        
     31400   319.40447      182.80637      278.96686     -5.1221197      31400        
     31500   349.3392       176.94944      282.12213      14.127387      31500        
     31600   315.79443      179.02886      274.1025      -6.6247241      31600        
     31700   299.35767      177.53289      267.65805      3.1562715      31700        
     31800   306.85211      161.17137      253.55283      0.35637297     31800        
     31900   244.79662      166.96761      240.66652     -5.9439764      31900        
     32000   252.96547      174.20744      250.36568     -1.1416702      32000        
     32100   293.72932      172.9484       261.37908      3.6169786      32100        
     32200   278.2776       189.02361      272.80237      2.8788106      32200        
     32300   326.42527      184.67737      282.95156      8.9195683      32300        
     32400   319.86166      187.91681      284.21494     -3.834728       32400        
     32500   289.00048      182.18712      269.19413     -0.47707445     32500        
     32600   249.28363      181.10749      256.15727     -5.1054634      32600        
     32700   268.24382      179.86935      260.62733     -5.5406725      32700        
     32800   307.26116      179.03612      271.54072      0.74488042     32800        
     32900   332.53795      176.60765      276.72213     -2.1297753      32900        
     33000   314.51895      180.00597      274.69562      11.991472      33000        
     33100   283.47739      185.54522      270.88943      5.396991       33100        
     33200   291.72687      180.27563      268.10345      1.7910625      33200        
     33300   276.9188       182.12028      265.48995     -5.9478993      33300        
     33400   275.25241      180.57512      263.44311      11.701088      33400        
     33500   306.70817      177.96331      270.30143      9.6136478      33500        
     33600   308.62639      190.24238      283.158        4.1220352      33600        
     33700   310.15339      191.63243      285.00778      1.9758141      33700        
     33800   288.02022      182.06765      268.77954     -1.232249       33800        
     33900   285.42317      173.63653      259.56655     -1.4357458      33900        
     34000   280.16275      179.4043       263.75061     -13.013849      34000        
     34100   298.47687      182.59982      272.45981      3.4700266      34100        
     34200   310.66821      185.42552      278.95586     -6.390989       34200        
     34300   285.3923       190.90394      276.82466      11.600653      34300        
     34400   299.17238      186.46152      276.5309       7.713312       34400        
     34500   284.12041      190.11182      275.64962     -4.8028073      34500        
     34600   301.27826      181.02779      271.73117      5.8274375      34600        
     34700   270.28609      183.44349      264.81631     -20.556546      34700        
     34800   302.89139      162.85502      254.04405     -5.1873567      34800        
     34900   284.75648      170.94434      256.67364     -0.26391117     34900        
     35000   289.36363      187.18679      274.30313     -2.316477       35000        
     35100   303.45208      186.96293      278.32076      14.918153      35100        
     35200   301.35035      185.24082      275.9659       0.84947557     35200        
     35300   266.13936      189.39532      269.51971      1.4471637      35300        
     35400   299.89731      164.83796      255.12558      3.1214231      35400        
     35500   249.19062      174.00814      249.02992      1.4109824      35500        
     35600   331.7945       169.34563      269.23628     -2.2079196      35600        
     35700   296.04589      190.26619      279.3943      -11.240753      35700        
     35800   282.05241      191.3071       276.22231     -4.4701261      35800        
     35900   320.29806      170.20136      266.63088      4.5119685      35900        
     36000   263.55128      175.77966      255.12489     -0.31152697     36000        
     36100   267.91745      180.57607      261.23579      2.6682594      36100        
     36200   309.48036      190.55769      283.73041      0.873404       36200        
     36300   297.15734      194.60723      284.06996      10.831207      36300        
     36400   311.48988      183.10003      276.87774      11.030434      36400        
     36500   267.72933      185.0066       265.60968     -6.7032658      36500        
     36600   274.39692      180.30304      262.91347     -1.658952       36600        
     36700   298.72693      190.33943      280.2747      -0.46256155     36700        
     36800   328.41631      193.7108       292.58441     -6.5545702      36800        
     36900   351.58844      173.9949       279.84476      2.3204632      36900        
     37000   299.4008       178.03971      268.17786     -20.723389      37000        
     37100   251.31874      189.29636      264.95884     -4.858041       37100        
     37200   285.69784      184.27528      270.28799      3.6597142      37200        
     37300   335.48179      191.95551      292.95627     -8.1464604      37300        
     37400   341.02064      189.40428      292.07257      3.7771858      37400        
     37500   327.83608      181.97483      280.67375     -3.7959054      37500        
     37600   312.46364      178.54525      272.61612      6.6959424      37600        
     37700   296.89011      177.83122      267.21349      1.6427554      37700        
     37800   296.8115       174.10691      263.46552     -9.4130362      37800        
     37900   299.05144      176.88599      266.91896      13.134032      37900        
     38000   307.56288      186.75063      279.34607     -12.89416       38000        
     38100   318.8805       190.73241      286.73515      7.3703446      38100        
     38200   294.61032      191.12253      279.81845     -8.2335408      38200        
     38300   263.9746       187.33275      266.80543      6.9939614      38300        
     38400   292.82353      174.08235      262.24034     -4.9137815      38400        
     38500   289.14207      182.20051      269.25014      8.0408159      38500        
     38600   285.66944      186.62077      272.62493     -2.6660685      38600        
     38700   298.94515      184.09229      274.09326      13.861859      38700        
     38800   290.48525      182.57681      270.03083     -6.9430838      38800        
     38900   259.22942      184.96823      263.01231      17.549685      38900        
     39000   288.39786      165.95269      252.77827      8.6259154      39000        
     39100   275.05788      176.43356      259.24299      5.1523145      39100        
     39200   302.31757      184.2          275.21628     -4.315803       39200        
     39300   303.92635      186.75085      278.25147     -24.249959      39300        
     39400   286.751        193.43798      279.76776     -12.148299      39400        
     39500   301.72074      174.23906      265.07566     -3.9399763      39500        
     39600   265.31561      176.34649      256.22289     -3.6821501      39600        
     39700   305.3518       167.33893      259.2687       4.8929615      39700        
     39800   308.37199      173.03193      265.87096      5.8595951      39800        
     39900   293.98954      181.31035      269.81937      1.9956842      39900        
     40000   287.30181      187.73028      274.22589     -2.0517345      40000        
     40100   294.33834      191.12602      279.74006     -6.343889       40100        
     40200   312.81095      197.71775      291.89318     -7.8691505      40200        
     40300   297.25411      203.27312      292.76498      3.0732289      40300        
     40400   284.33573      186.53601      272.13864     -7.8785618      40400        
     40500   296.02046      178.03631      267.15677     -5.4389953      40500        
     40600   305.94355      174.53003      266.63795     -12.240382      40600        
     40700   314.6583       176.76099      271.49259      4.646982       40700        
     40800   338.19576      181.13335      282.95118      0.34705862     40800        
     40900   332.65991      191.08295      291.23415     -7.4528881      40900        
     41000   288.04963      187.92328      274.64403      0.82769025     41000        
     41100   277.96479      180.24407      263.92865      9.5947967      41100        
     41200   295.64356      178.8542       267.86118     -1.265494       41200        
     41300   294.12694      188.3257       276.87609     -8.5157956      41300        
     41400   339.40535      185.57479      287.75678     -9.6623191      41400        
     41500   323.17697      187.79405      285.09029      4.7059253      41500        
     41600   295.32364      175.87806      264.78873     -9.3598621      41600        
     41700   265.97653      177.34459      257.41996     -2.193057       41700        
     41800   287.05123      176.62546      263.04563      6.9468911      41800        
     41900   293.52595      190.04472      278.41418      2.6580597      41900        
     42000   322.4383       187.16853      284.24239     -1.7820734      42000        
     42100   315.1399       183.85061      278.7272      -3.7767021      42100        
     42200   318.45436      176.79737      272.67182      2.3876151      42200        
     42300   314.94947      178.75425      273.57351      5.4468275      42300        
     42400   294.6017       185.98152      274.67484     -5.791761       42400        
     42500   304.64198      180.68096      272.39703      2.8613378      42500        
     42600   290.80327      179.6868       267.23656     -19.986878      42600        
     42700   265.87007      175.07335      255.11667      3.8546715      42700        
     42800   248.07096      178.68741      253.3721      -4.8275374      42800        
     42900   309.1664       175.873        268.95119      2.1028311      42900        
     43000   329.52265      179.27036      278.47705      6.6541706      43000        
     43100   293.63101      189.33104      277.73212      9.5685003      43100        
     43200   325.07744      171.72128      269.58969     -1.9777282      43200        
     43300   286.55143      173.06569      259.33538     -6.7275696      43300        
     43400   256.43788      173.89022      251.09387      7.0329348      43400        
     43500   288.7102       178.45272      265.37234      5.0329651      43500        
     43600   318.38028      184.49491      280.34705     -6.8114756      43600        
     43700   320.28701      182.36395      278.79014      9.5598247      43700        
     43800   294.78374      181.07798      269.82611     -0.59286699     43800        
     43900   267.24618      177.72459      258.18221      7.4819292      43900        
     44000   280.352        175.14072      259.544        5.1242987      44000        
     44100   324.85005      181.08156      278.88151      10.920551      44100        
     44200   327.96847      188.18675      286.92553      5.6753938      44200        
     44300   350.66777      171.70694      277.27961     -4.925493       44300        
     44400   278.59618      179.79097      263.66564      3.942164       44400        
     44500   276.6497       179.70965      262.99831      6.007083       44500        
     44600   316.1971       171.98366      267.17853     -8.3352088      44600        
     44700   303.91574      180.95306      272.45049     -6.5288472      44700        
     44800   301.49293      182.3313       273.09931     -12.145883      44800        
     44900   283.36422      185.13972      270.44987      6.5499504      44900        
     45000   333.05545      171.13211      271.40239     -5.0428315      45000        
     45100   319.35957      176.02672      272.17369      8.5367857      45100        
     45200   298.46911      181.13448      270.99214      2.8073339      45200        
     45300   269.27897      189.60522      270.67484      6.4257904      45300        
     45400   289.47879      185.69051      272.84152     -5.7718319      45400        
     45500   300.02228      181.56356      271.88881      5.1093301      45500        
     45600   318.57459      173.33947      269.25011      7.7835754      45600        
     45700   306.80132      170.03549      262.40165     -2.7079634      45700        
     45800   257.95978      178.33815      255.99998     -0.014793494    45800        
     45900   326.67763      176.64207      274.99223     -9.4453472      45900        
     46000   338.06526      183.1255       284.90404     -1.4649662      46000        
     46100   302.42559      191.09774      282.14653     -4.088593       46100        
     46200   307.04857      177.29536      269.73596     -6.9080887      46200        
     46300   245.81694      186.83123      260.83732     -2.5959092      46300        
     46400   244.27596      190.52006      264.06222      8.6543575      46400        
     46500   293.76456      178.56403      267.00532     -0.4360817      46500        
     46600   321.79321      173.99331      270.87296      7.9270381      46600        
     46700   294.71096      188.69248      277.41869     -1.5463477      46700        
     46800   287.32217      195.77459      282.27633      4.95346        46800        
     46900   316.50263      184.70653      279.99338     -16.720475      46900        
     47000   281.19349      180.183        264.83962     -10.024728      47000        
     47100   277.58499      176.47432      260.04456      5.7238328      47100        
     47200   296.09303      179.98071      269.12302      7.6939885      47200        
     47300   323.14571      186.65274      283.93958     -0.34569631     47300        
     47400   314.88517      190.45722      285.25712      2.698502       47400        
     47500   314.27801      181.89988      276.51699     -1.479127       47500        
     47600   317.89082      175.85484      271.55962      10.086799      47600        
     47700   266.50571      186.97806      267.21276     -0.7428338      47700        
     47800   283.11872      182.37567      267.61191      0.50594166     47800        
     47900   297.70483      198.93174      288.5593       10.22659       47900        
     48000   348.92411      187.85556      292.90329     -3.9689958      48000        
     48100   296.11725      187.97351      277.12311      14.928346      48100        
     48200   297.75012      176.35174      265.99293     -9.674771       48200        
     48300   289.96242      177.88839      265.185       -3.6704649      48300        
     48400   308.68235      176.30425      269.23672      1.2981693      48400        
     48500   295.55311      193.12957      282.10932      4.0342416      48500        
     48600   313.96336      203.68883      298.21121     -7.857041       48600        
     48700   294.56086      197.77999      286.46102      16.43473       48700        
     48800   300.99147      186.05931      276.67635     -0.86365318     48800        
     48900   304.91607      180.26627      272.06486      4.1855078      48900        
     49000   319.1592       171.41793      267.50458     -11.800369      49000        
     49100   324.20598      165.95894      263.56498      9.5105222      49100        
     49200   264.84612      186.79316      266.52822      10.772613      49200        
     49300   311.62218      182.36632      276.18386      3.8334993      49300        
     49400   341.16608      180.37163      283.0837      -4.826371       49400        
     49500   322.44368      175.85639      272.93187     -0.1447027      49500        
     49600   258.9696       180.23959      258.20545      0.01662951     49600        
     49700   263.61302      180.7522       260.11601      9.954168       49700        
     49800   289.94699      181.60684      268.8988      -18.532683      49800        
     49900   274.97092      190.88236      273.6656       6.0532925      49900        
     50000   291.07128      187.32666      274.9571      -13.311046      50000        
     50100   313.39823      178.54156      272.8938       5.2414042      50100        
     50200   306.23189      166.8449       259.03963     -15.370433      50200        
     50300   227.24711      181.84812      250.26354     -12.36157       50300        
     50400   273.40628      178.18053      260.49272     -14.213821      50400        
     50500   333.08283      172.53691      272.81543      6.6078919      50500        
     50600   309.87528      183.98879      277.2804       1.2958092      50600        
     50700   287.00951      189.34997      275.75757      6.4660631      50700        
     50800   254.34902      187.97763      264.5524      -9.5345082      50800        
     50900   241.83334      178.67294      251.47972     -2.1547221      50900        
     51000   281.72715      170.76499      255.58228     -15.554564      51000        
     51100   313.4499       182.63334      277.00113      9.6781098      51100        
     51200   309.07141      184.6935       277.7431      -2.9049626      51200        
     51300   288.77179      186.75359      273.69175     -2.7353699      51300        
     51400   311.08938      168.57272      262.22986     -9.9976636      51400        
     51500   287.60376      165.16965      251.75616      19.016664      51500        
     51600   254.51037      176.14592      252.76927      1.6603768      51600        
     51700   304.84615      183.3112       275.08873      2.3095335      51700        
     51800   333.73459      179.33138      279.80613     -2.0416452      51800        
     51900   332.5785       178.80257      278.92926      10.18601       51900        
     52000   297.44444      178.24651      267.79567      11.382038      52000        
     52100   259.79928      179.59811      257.81375     -7.0323657      52100        
     52200   294.65207      172.80215      261.51063      1.80072        52200        
     52300   324.56613      187.92527      285.63974      1.8402884      52300        
     52400   302.9658       193.43796      284.64939      0.97361953     52400        
     52500   304.94048      181.8909       273.69684      6.4975181      52500        
     52600   302.39416      172.63301      263.67234     -2.9749429      52600        
     52700   276.88718      180.24669      263.60685      2.4471989      52700        
     52800   317.11586      182.91357      278.38504      0.95381301     52800        
     52900   352.09564      188.68031      294.68286     -0.28955539     52900        
     53000   301.75039      194.8182       285.66372     -15.505697      53000        
     53100   301.9987       180.74325      271.66353      3.2457322      53100        
     53200   284.08632      178.71762      264.24516     -11.19717       53200        
     53300   292.26688      177.13958      265.12997     -1.5834252      53300        
     53400   327.32791      180.34983      278.89577     -14.167661      53400        
     53500   317.47261      197.56737      293.14625      5.5608299      53500        
     53600   303.99259      194.55066      286.07122      3.1699467      53600        
     53700   320.52891      178.14231      274.64132      4.5524018      53700        
     53800   281.3361       186.95455      271.65411     -1.8926695      53800        
     53900   272.27763      188.60831      270.58071     -2.9919104      53900        
     54000   304.16336      179.95831      271.53028     -14.537824      54000        
     54100   299.25287      185.34386      275.43747     -4.7579174      54100        
     54200   314.80765      184.80513      279.58169     -1.0271476      54200        
     54300   306.88794      184.88589      277.27813      5.0589083      54300        
     54400   289.56436      179.92651      267.10328      0.44626693     54400        
     54500   269.43486      177.25024      258.36679     -3.1705612      54500        
     54600   314.79337      171.55645      266.32871      9.1371134      54600        
     54700   333.63708      187.03115      287.47653      5.7572661      54700        
     54800   329.58825      186.53322      285.75965     -2.9610678      54800        
     54900   294.84291      184.76817      273.53411      7.1234628      54900        
     55000   281.9783       179.38136      264.27425     -4.2994638      55000        
     55100   307.22996      175.42661      267.92182     -4.2623524      55100        
     55200   266.94727      189.62947      269.9971      -2.4635577      55200        
     55300   309.72597      179.161        272.40767     -1.2242058      55300        
     55400   272.98677      191.28227      273.46816      4.0115992      55400        
     55500   310.83617      179.52014      273.10104      4.0439754      55500        
     55600   311.41727      179.9755       273.73134      5.0179824      55600        
     55700   276.74442      185.77487      269.09205      3.1478754      55700        
     55800   259.96461      178.65965      256.92507     -0.91909819     55800        
     55900   268.59774      176.48919      257.35371     -2.8596368      55900        
     56000   296.93951      183.95133      273.34848     -2.7961594      56000        
     56100   323.49374      182.7278       280.11941      1.8994945      56100        
     56200   272.02776      195.74087      277.63805      3.0421871      56200        
     56300   265.57369      190.88936      270.84346      6.1660323      56300        
     56400   276.98875      177.92272      261.31345     -3.7211327      56400        
     56500   276.88373      161.26173      244.62084      1.208267       56500        
     56600   260.15162      170.42005      248.74177      9.6294282      56600        
     56700   279.47248      181.16469      265.30319     -8.7270971      56700        
     56800   328.12209      173.82983      272.61486     -2.7594316      56800        
     56900   274.47512      195.64311      278.27709     -14.870621      56900        
     57000   299.45312      189.86949      280.02339      7.3790785      57000        
     57100   333.70022      175.50712      275.97152      2.8221256      57100        
     57200   282.1732       176.14515      261.09673      1.317336       57200        
     57300   269.10736      175.98354      257.00149      7.544778       57300        
     57400   296.45774      182.17224      271.42435     -8.0598894      57400        
     57500   288.24532      195.26839      282.04805     -16.532447      57500        
     57600   337.70774      178.67277      280.34368     -5.3307471      57600        
     57700   301.53788      179.25982      270.04136      3.3891224      57700        
     57800   303.43085      171.07125      262.42269      3.0430585      57800        
     57900   262.02286      178.71489      257.59997      2.3915723      57900        
     58000   266.1939       175.38725      255.52807     -0.70764559     58000        
     58100   314.8711       172.00077      266.79644      2.6222501      58100        
     58200   295.1851       190.601        279.46996      18.95138       58200        
     58300   299.41681      191.92532      282.06829     -12.705443      58300        
     58400   297.16602      180.12299      269.58833      13.014305      58400        
     58500   260.11033      178.17208      256.48136     -1.8767632      58500        
     58600   280.54896      176.70881      261.17139      4.007637       58600        
     58700   276.71657      184.91348      268.22227     -13.535282      58700        
     58800   299.61745      182.90987      273.11325     -3.7317824      58800        
     58900   317.03208      179.40422      274.85047     -6.7861459      58900        
     59000   326.37511      176.4941       274.75318     -2.6407732      59000        
     59100   311.27131      175.28239      268.99429      2.757452       59100        
     59200   254.88707      186.25866      262.99543      5.2018959      59200        
     59300   279.63706      181.64439      265.83243      8.5775405      59300        
     59400   278.44935      195.08694      278.9174      -12.574568      59400        
     59500   336.1913       187.37451      288.58888      4.9157983      59500        
     59600   332.43723      182.12722      282.21137     -10.627714      59600        
     59700   250.39534      185.29607      260.68055     -12.872835      59700        
     59800   269.44979      180.29312      261.41416      4.4146039      59800        
     59900   338.58717      168.19695      270.13261      3.6427488      59900        
     60000   307.75089      187.33894      279.99098      13.317442      60000        
     60100   305.84519      191.57748      283.65579      14.498622      60100        
     60200   292.45214      184.95337      272.99954      8.0530854      60200        
     60300   303.86918      169.90901      261.39242     -7.6885887      60300        
     60400   282.60715      176.66118      261.7434      -2.4333697      60400        
     60500   288.30459      186.90143      273.69893     -0.98433714     60500        
     60600   333.58475      183.42376      283.85339     -0.8864169      60600        
     60700   333.45272      181.2151       281.60498     -1.8370455      60700        
     60800   286.93247      187.52718      273.91159      9.5488087      60800        
     60900   278.88919      185.99584      269.95872      4.3785206      60900        
     61000   276.58696      184.33105      267.60083     -9.767206       61000        
     61100   315.18477      171.35461      266.2447      -16.014578      61100        
     61200   304.48146      181.55908      273.22683      2.5088894      61200        
     61300   314.64128      192.86159      287.58807     -15.049364      61300        
     61400   323.81318      188.93105      286.41883      11.943136      61400        
     61500   295.27225      178.99291      267.88811      10.496627      61500        
     61600   284.0162       176.69112      262.19755      7.7728099      61600        
     61700   291.5704       176.87156      264.65227      10.159543      61700        
     61800   277.40385      190.83786      274.35356      3.1603226      61800        
     61900   374.99083      180.81144      293.70686     -14.351413      61900        
     62000   348.48042      193.70062      298.61476     -0.7770968      62000        
     62100   311.95737      183.72423      277.64268     -14.830233      62100        
     62200   281.80653      184.44745      269.28863     -0.11275415     62200        
     62300   300.32297      180.60053      271.01631     -9.3994766      62300        
     62400   266.41138      192.53907      272.74537     -3.0300371      62400        
     62500   325.98068      171.78757      269.92791     -3.4592084      62500        
     62600   324.62912      177.36655      275.09998     -5.3364028      62600        
     62700   277.69512      189.75266      273.35605      5.2754454      62700        
     62800   278.66212      179.83582      263.73034     -3.0077244      62800        
     62900   263.8845       179.13232      258.57787     -7.3674412      62900        
[...]
    308600   320.0958       187.03743      283.40605      2.5511058      308600       
    308700   274.1475       174.14055      256.6759       5.6691267      308700       
    308800   278.02872      173.76447      257.4683       3.2245967      308800       
    308900   286.11454      183.35466      269.49283     -4.028925       308900       
    309000   289.96813      194.62639      281.92472      2.7433391      309000       
    309100   297.50103      197.43549      287.00169     -3.5787874      309100       
    309200   279.08529      192.61092      276.63284     -3.8077147      309200       
    309300   275.42774      179.89669      262.81746      0.33711776     309300       
    309400   295.76417      174.13919      263.18249      8.7612272      309400       
    309500   281.03532      183.93516      268.54417     -1.1376205      309500       
    309600   317.46016      178.79647      274.3716       1.3023462      309600       
    309700   319.95028      175.47619      271.801        4.1681683      309700       
    309800   298.33736      177.69666      267.51465      2.5279833      309800       
    309900   250.87589      176.9904       252.51955      6.440555       309900       
    310000   296.00057      164.99826      254.11273     -6.0548238      310000       
    310100   289.57298      184.6046       271.78397      6.6938171      310100       
    310200   304.60743      186.4391       278.14476      4.0590285      310200       
    310300   291.31911      190.39724      278.1023       1.6416978      310300       
    310400   277.86084      182.79643      266.44972     -3.1386336      310400       
    310500   244.301        177.14827      250.69797     -3.6147477      310500       
    310600   258.47216      171.43318      249.24928     -10.619251      310600       
    310700   312.88679      181.38931      275.58757      8.4696391      310700       
    310800   310.12365      186.78884      280.15523      1.5999104      310800       
    310900   271.16991      194.63192      276.27082     -14.041011      310900       
    311000   253.86858      188.9829       265.41304      2.1134202      311000       
    311100   289.9174       175.53935      262.8224       3.5169045      311100       
    311200   300.34476      177.30131      267.72365      5.0679002      311200       
    311300   325.89887      184.04636      282.16207     -13.469081      311300       
    311400   308.3873       191.64769      284.49133     -4.0406139      311400       
    311500   292.58935      180.66056      268.74804      4.99666        311500       
    311600   275.30547      176.27456      259.15852     -8.6241979      311600       
    311700   305.92408      169.85099      261.95305     -7.8870764      311700       
    311800   295.00692      181.84854      270.66386     -3.9748749      311800       
    311900   304.02734      185.86309      277.39411      4.099561       311900       
    312000   347.32057      177.49732      282.06228     -2.4314454      312000       
    312100   281.93202      189.88594      274.76491      10.320633      312100       
    312200   257.11459      186.90582      264.31321      6.8729741      312200       
    312300   283.38671      175.96585      261.28276      1.8506989      312300       
    312400   301.94286      179.63924      270.5427       1.7329946      312400       
    312500   346.8045       178.22877      282.63836     -1.6301054      312500       
    312600   333.47564      184.639        285.03579      1.0001092      312600       
    312700   282.94083      185.03127      270.21395      0.46285734     312700       
    312800   265.2028       180.00124      259.84368     -1.2382685      312800       
    312900   306.81741      172.05923      264.43024     -7.8496954      312900       
    313000   331.11273      176.83602      276.52142     -12.848778      313000       
    313100   323.54533      186.84125      284.2484      -1.6730559      313100       
    313200   307.67002      186.06163      278.68932      1.5158938      313200       
    313300   269.06286      179.3973       260.40185      4.2838616      313300       
    313400   238.96124      186.65829      258.60039      4.4333874      313400       
    313500   301.96861      176.71863      267.62985      1.2696162      313500       
    313600   296.0036       185.20605      274.32143     -3.1621038      313600       
    313700   309.94063      184.21835      277.52963     -9.4386722      313700       
    313800   306.3311       177.4528       269.6774       10.843089      313800       
    313900   257.55576      173.85917      251.39937      0.095485297    313900       
    314000   246.84662      183.69509      258.01118     -7.3820313      314000       
    314100   300.59806      182.69249      273.19108     -9.0532369      314100       
    314200   296.15996      187.78099      276.94344      17.203633      314200       
    314300   319.88697      178.29699      274.60274      0.83345764     314300       
    314400   302.80051      169.29792      260.45959      4.694341       314400       
    314500   228.82568      184.00213      252.89281     -5.2564075      314500       
    314600   281.38501      176.50025      261.21454      6.2179313      314600       
    314700   274.28806      187.34863      269.92629     -16.572609      314700       
    314800   319.86094      179.28323      275.58115      7.431433       314800       
    314900   301.32097      191.72088      282.43712     -6.9007218      314900       
    315000   299.80251      191.65221      281.9113       9.2308422      315000       
    315100   323.29445      174.54629      271.8779      -12.447091      315100       
    315200   294.7995       169.15916      257.91203      6.4615301      315200       
    315300   258.40162      182.7512       260.54606     -0.73391885     315300       
    315400   279.99118      187.69008      271.98473     -9.1507642      315400       
    315500   312.26359      182.32893      276.33958     -9.3889102      315500       
    315600   329.67815      176.71945      275.97295      0.84766679     315600       
    315700   287.19803      184.52767      270.99203     -5.7012349      315700       
    315800   256.77028      189.38972      266.69345      15.398984      315800       
    315900   273.80104      178.06763      260.49867     -6.4426248      315900       
    316000   287.54059      177.12616      263.69365      3.4276263      316000       
    316100   336.18693      176.08032      277.29336      13.578339      316100       
    316200   324.99464      187.17226      285.01574     -4.416443       316200       
    316300   278.15126      196.34758      280.08831     -3.0248318      316300       
    316400   278.08874      176.55738      260.27928     -0.056309957    316400       
    316500   274.52904      178.85774      261.50795     -4.9100093      316500       
    316600   303.26849      175.15356      266.45613      3.6394073      316600       
    316700   315.95098      182.04607      277.16684     -11.741801      316700       
    316800   336.5217       181.89246      283.20629      4.7498674      316800       
    316900   337.08856      179.42284      280.90734      4.28733        316900       
    317000   278.87789      175.72832      259.6878       4.7085109      317000       
    317100   287.58063      170.39754      256.97709     -1.9954013      317100       
    317200   281.0154       186.38785      270.99086      0.74471794     317200       
    317300   309.86708      188.55016      281.8393      -1.5909325      317300       
    317400   296.25375      190.31618      279.50687      10.110339      317400       
    317500   330.58387      169.71714      269.24332     -7.0588518      317500       
    317600   275.51313      166.79034      249.73683     -1.2841256      317600       
    317700   285.52802      168.19422      254.1558       10.553706      317700       
    317800   285.18246      181.45663      267.31417      0.17816945     317800       
    317900   319.95637      178.30744      274.63409      0.65600858     317900       
    318000   307.63946      181.63664      274.25514      12.988597      318000       
    318100   296.90282      180.18269      269.56879     -15.472779      318100       
    318200   276.31624      174.27971      257.46798     -4.6133389      318200       
    318300   253.07874      177.88625      254.0786       4.9597769      318300       
    318400   306.06548      177.70561      269.85024      5.5792089      318400       
    318500   304.06197      186.29269      277.83414     -10.746805      318500       
    318600   303.80097      186.78269      278.24556     -1.8109138      318600       
    318700   292.32524      183.68398      271.69194     -2.9032459      318700       
    318800   263.58639      182.09016      261.44596     -5.9719444      318800       
    318900   264.8612       168.86464      248.60424     -7.4599833      318900       
    319000   272.80129      170.87406      253.00411      12.61098       319000       
    319100   268.65917      188.65254      269.53556     -9.2064376      319100       
    319200   326.74251      174.85786      273.22755     -2.8712325      319200       
    319300   339.53235      170.94827      273.1685       0.99288472     319300       
    319400   290.85968      182.73056      270.2973      -4.1382445      319400       
    319500   264.81858      179.9277       259.65447      6.3488573      319500       
    319600   245.77874      183.9677       257.9623      -8.539194       319600       
    319700   300.33274      177.92894      268.34766     -5.8166242      319700       
    319800   290.6614       194.90813      282.41518     -11.083665      319800       
    319900   307.18997      190.53998      283.02315      4.1141234      319900       
    320000   291.87109      183.38926      271.2605      -8.1736868      320000       
    320100   263.46016      178.20471      257.5225      -1.5491918      320100       
    320200   278.05921      178.06806      261.78107      13.523025      320200       
    320300   276.96331      180.44774      263.83082     -2.0662549      320300       
    320400   322.54109      172.91149      270.01629      8.5920693      320400       
    320500   323.25692      180.98164      278.30196     -1.5195327      320500       
    320600   277.23299      201.32797      284.79224     -5.7474438      320600       
    320700   287.75235      199.01676      285.64801      5.7945808      320700       
    320800   307.47486      177.37384      269.94278      1.9185879      320800       
    320900   267.735        179.43353      260.03831      2.1795102      320900       
    321000   300.49603      172.00518      262.47306     -1.2364268      321000       
    321100   292.74597      189.31514      277.44977      3.0613686      321100       
    321200   265.61193      207.82513      287.79074     -7.5377376      321200       
    321300   298.8962       189.42452      279.41075     -7.8029309      321300       
    321400   284.72941      184.48406      270.20522     -12.235181      321400       
    321500   315.59987      174.88539      269.90046     -7.628329       321500       
    321600   285.28056      183.30264      269.18972     -5.4833718      321600       
    321700   343.34014      185.81719      289.18379     -3.8338089      321700       
    321800   309.37136      199.71721      292.85712     -9.7884446      321800       
    321900   297.07197      186.47164      275.90867     -6.2627827      321900       
    322000   295.71905      178.09126      267.12097     -5.8132739      322000       
    322100   302.84128      178.03903      269.21297     -9.8864985      322100       
    322200   330.98857      173.03386      272.68188      22.736872      322200       
    322300   353.76742      182.33787      288.84373      3.1208326      322300       
    322400   333.53342      192.51259      292.92676      2.273643       322400       
    322500   313.00035      182.20606      276.43851     -1.2076141      322500       
    322600   296.22163      176.54513      265.72615     -3.3584454      322600       
    322700   313.83312      172.34698      266.83015      0.65870309     322700       
    322800   304.60503      184.48298      276.18793     -0.21472397     322800       
    322900   368.24775      180.22142      291.08676      10.483252      322900       
    323000   320.7011       194.90386      291.45472      16.468718      323000       
    323100   255.60349      190.46368      267.41613     -9.1636625      323100       
    323200   317.52815      168.24797      263.84357      6.2044014      323200       
    323300   276.5519       185.94301      269.20222      12.37238       323300       
    323400   320.65412      183.49198      280.02869      5.4450269      323400       
    323500   302.32068      195.04348      286.06069     -11.794815      323500       
    323600   305.08078      188.63902      280.48719     -5.2186199      323600       
    323700   302.40944      169.38684      260.43077      3.206285       323700       
    323800   278.94003      174.21738      258.19558      10.541529      323800       
    323900   284.45152      184.12186      269.75935     -5.2010818      323900       
    324000   306.34171      187.4817       279.70949      4.8751937      324000       
    324100   272.53711      198.11586      280.16638      8.2468431      324100       
    324200   309.02934      185.87613      278.91306     -6.3368122      324200       
    324300   331.75277      173.13538      273.01348      2.5875381      324300       
    324400   262.07254      186.92922      265.82926     -10.749394      324400       
    324500   256.19617      165.8413       242.97219     -2.3535965      324500       
    324600   250.02781      172.76662      248.04045     -0.92940237     324600       
    324700   287.49499      175.78288      262.33664     -2.9958324      324700       
    324800   310.85941      178.78118      272.36908     -5.0642461      324800       
    324900   332.20516      183.37801      283.3923       10.008444      324900       
    325000   319.87714      185.72927      282.03206     -3.6739246      325000       
    325100   328.48234      167.37952      266.27301      4.2483147      325100       
    325200   283.76356      171.13962      256.57        -13.472388      325200       
    325300   250.91902      185.14419      260.68633      2.4076791      325300       
    325400   317.83799      176.40999      272.09887      1.4097388      325400       
    325500   309.05714      185.82946      278.87476      2.450787       325500       
    325600   305.46302      185.22015      277.1834       1.1031161      325600       
    325700   285.53722      188.26083      274.22519      4.8870812      325700       
    325800   290.12001      176.05675      263.4008       12.534179      325800       
    325900   229.85191      176.60167      245.8013      -3.7481485      325900       
    326000   256.49287      175.90675      253.12696      3.3621158      326000       
    326100   294.56426      176.78053      265.46258      1.2371206      326100       
    326200   313.66799      176.88443      271.31789      8.3459223      326200       
    326300   299.41808      184.08946      274.23281      4.8269467      326300       
    326400   330.75234      179.00024      278.57713      9.4279358      326400       
    326500   293.68317      182.85405      271.27083      11.015157      326500       
    326600   230.97265      190.87045      260.4075       3.3108885      326600       
    326700   310.52392      167.43263      260.91952      6.8123407      326700       
    326800   330.67359      181.73406      281.28725     -15.499155      326800       
    326900   322.55599      188.01319      285.12249     -6.5838276      326900       
    327000   287.44378      190.25667      276.79501      3.9609343      327000       
    327100   314.21211      173.79933      268.39659     -0.79931396     327100       
    327200   253.03562      183.53671      259.71607     -4.0915826      327200       
    327300   272.84981      162.91944      245.0641       7.9868414      327300       
    327400   242.34252      168.3949       241.35497      3.778433       327400       
    327500   284.15263      173.64573      259.19324      6.1513982      327500       
    327600   319.93476      173.10536      269.4255      -2.3793089      327600       
    327700   279.70281      192.97828      277.18611     -17.076913      327700       
    327800   314.40718      181.06569      275.72169     -12.467098      327800       
    327900   273.82629      182.96771      265.40635      2.5764033      327900       
    328000   275.3541       170.5253       253.4239      -12.872005      328000       
    328100   270.71389      176.92207      258.42369      9.439615       328100       
    328200   327.48431      180.17869      278.77171     -14.922282      328200       
    328300   293.56476      190.73841      279.11955      5.8156465      328300       
    328400   287.05157      183.64437      270.06463     -1.1710437      328400       
    328500   258.53584      183.9327       261.76797     -7.4355054      328500       
    328600   270.60865      176.36929      257.83922      1.9174573      328600       
    328700   266.50886      189.80258      270.03822     -7.5446645      328700       
    328800   334.10561      182.70317      283.28961      9.5423749      328800       
    328900   304.9846       189.9966       281.81582      5.1044408      328900       
    329000   307.55019      179.23086      271.82248      10.051825      329000       
    329100   285.83608      174.5734       260.62773      0.77195421     329100       
    329200   304.59889      169.41249      261.11559      2.0477087      329200       
    329300   335.22835      173.55888      274.48334     -10.084907      329300       
    329400   363.0336       191.49156      300.78712      10.359093      329400       
    329500   338.3163       190.84489      292.69901     -7.2873415      329500       
    329600   316.53438      179.07667      274.37308      9.2842532      329600       
    329700   291.2104       180.53651      268.20885      5.3487979      329700       
    329800   252.68265      187.03395      263.10705      18.642421      329800       
    329900   289.51336      183.45671      270.61812     -3.3645728      329900       
    330000   358.53937      177.76204      285.70456      4.3052359      330000       
    330100   329.63775      185.71875      284.96009     -17.984744      330100       
    330200   295.46936      185.29483      274.24937     -2.8415719      330200       
    330300   306.78668      178.97798      271.33974      1.2690153      330300       
    330400   266.49311      188.14994      268.38084     -2.2837908      330400       
    330500   279.67439      181.00887      265.20815      7.4201083      330500       
    330600   289.12014      174.36633      261.40937     -1.8380196      330600       
    330700   316.18483      171.84626      267.03744      0.47088949     330700       
    330800   308.62151      186.49883      279.41298      0.16477932     330800       
    330900   331.68998      183.34875      283.20793      2.8618223      330900       
    331000   294.30338      189.15937      277.76288     -10.360312      331000       
    331100   295.92435      170.66364      259.75516      11.597255      331100       
    331200   255.89106      182.04457      259.0836      -3.6217607      331200       
    331300   270.1525       185.86244      267.19505      0.10572731     331300       
    331400   331.12353      180.61732      280.30597     -11.00627       331400    