ITEM: TIMESTEP
0
ITEM: NUMBER OF ATOMS
102
ITEM: BOX BOUNDS pp pp pp
0.0000000000000000e+00 1.0000000000000000e+02
0.0000000000000000e+00 1.0000000000000000e+02
0.0000000000000000e+00 1.0000000000000000e+02
ITEM: ATOMS id mol type x y z vx vy vz ix iy iz
89 1 8 93.234 3.77157 0.89485 -0.00102953 -0.00635369 -0.00881619 -1 0 0
90 1 8 92.6629 3.45329 99.2248 0.0103962 -0.00710738 0.00590718 -1 0 -1
91 1 8 93.5564 4.83384 99.606 0.0070916 -0.000506259 -0.00207054 -1 0 -1
1 1 40 96.0063 3.68578 99.4432 0.00163762 -6.26776e-05 0.00310876 -1 0 -1
2 1 13 97.2588 2.99751 99.2816 0.00280652 -0.00409684 -0.00857331 -1 0 -1
3 1 14 97.1908 1.56783 99.3009 0.00142849 0.00441298 0.00205844 -1 0 -1
4 1 14 96.039 0.873749 99.6545 0.00653942 -0.0099164 0.0031735 -1 0 -1
5 1 13 94.7717 1.55649 99.6603 0.00756956 -0.00839586 0.00265484 -1 0 -1
6 1 14 94.7474 2.97986 99.5865 5.46449e-05 -0.00358643 0.00303409 -1 0 -1
9 1 4 98.3806 0.615531 99.1543 0.00626701 -0.00734067 -0.00195151 -1 0 -1
53 1 41 96.0267 5.03714 99.5796 -0.00330362 -0.00241155 -0.00240624 -1 0 -1
54 1 3 93.5153 3.78037 99.8356 0.00204608 -0.00262486 0.000395223 -1 0 -1
61 1 15 98.1578 3.50835 99.1122 0.0135406 0.0268688 0.0104361 -1 0 -1
62 1 15 93.8586 1.05128 99.8424 -0.0216058 -0.00166341 -0.0175814 -1 0 -1
64 1 8 98.7786 0.5524 98.1284 -0.0339703 -0.0179522 -0.0269484 -1 0 -1
88 1 42 96.8344 5.46188 99.4143 0.0219697 0.0128692 -0.0168331 -1 0 -1
63 1 8 99.2735 0.853433 99.7513 0.000370277 0.00184471 0.00934676 -1 0 -1
51 1 13 2.49066 90.0066 0.427274 -0.0179809 -0.00440204 0.00504964 0 -1 0
52 1 13 1.35613 90.8482 0.469849 -0.00234676 -0.00776373 0.00494762 0 -1 0
86 1 15 2.4739 89.0044 0.721644 -0.0192354 -0.00473058 -0.00140763 0 -1 0
87 1 15 0.436068 90.3041 0.686765 0.0107244 0.0148176 -0.00465939 0 -1 0
43 1 14 1.43445 92.2374 0.159406 0.000179228 -0.0031566 0.00200074 0 -1 0
50 1 40 3.76109 90.5869 0.0834345 -0.00838937 -0.00671303 0.0027742 0 -1 0
78 1 8 92.3906 89.0116 0.189298 0.0230673 -0.00385534 0.00828326 -1 -1 0
59 1 41 92.7212 91.5849 0.134116 0.00724645 -0.00143935 -0.00227509 -1 -1 0
98 1 42 92.7756 92.5373 0.326735 0.0128952 0.0286354 0.00584986 -1 -1 0
76 1 8 94.1135 87.447 0.900557 -0.0173464 -0.00250369 -0.00502259 -1 -1 0
83 1 15 99.4875 92.5649 0.863808 0.0139672 0.0115555 -0.00961372 -1 -1 0
42 1 13 0.306983 93.0744 0.247238 -0.000230422 0.000141875 0.00205512 0 -1 0
96 1 8 8.01466 93.5232 0.602759 0.0179793 0.0142594 0.00865237 0 -1 0
68 1 8 92.4967 97.7479 1.60361 -0.00225614 0.010146 -0.0210849 -1 -1 0
100 1 8 97.6105 92.8753 0.608185 0.0165952 -0.0120175 -0.00359052 -1 -1 0
17 1 14 95.1712 96.0591 0.159454 0.00227073 -0.00454756 0.00511478 -1 -1 0
67 1 8 94.0851 97.4593 2.26805 -0.02583 0.0189761 0.0157405 -1 -1 0
15 1 4 93.524 97.5104 1.31713 0.00649115 0.00177765 0.00630664 -1 -1 0
69 1 8 93.4446 95.4155 1.23414 0.0152115 0.0211684 0.00143552 -1 -1 0
101 1 8 94.2558 93.5717 0.970837 0.019288 -0.0213398 0.0242736 -1 -1 0
14 1 4 94.0958 98.6801 0.618787 0.00765297 0.000304446 -0.00548561 -1 -1 0
16 1 4 93.7592 96.2236 0.515052 0.00348749 0.00368501 0.001489 -1 -1 0
65 1 8 94.1592 99.3799 1.44558 0.0122629 -0.00306783 0.0214957 -1 -1 0
13 1 14 95.5421 98.4421 0.204569 -0.00823159 6.65339e-05 0.00389373 -1 -1 0
12 1 14 96.0761 97.1494 0.103893 0.00403403 -0.00211724 0.00659954 -1 -1 0
49 1 14 3.89071 91.9905 99.8459 -0.00661873 0.00572307 0.0013303 0 -1 -1
60 1 41 4.77472 89.72 99.8951 0.00764501 0.000139699 0.0037539 0 -1 -1
85 1 15 6.03476 91.905 99.6345 -0.0266252 -0.0267082 0.0179036 0 -1 -1
97 1 42 0.0856601 89.289 97.9976 -0.00443279 0.0300809 -0.0134896 0 -1 -1
99 1 42 5.56605 90.1304 99.7002 0.0115603 0.0281211 -0.000902147 0 -1 -1
44 1 14 2.70852 92.7348 99.8767 -0.00688074 -0.0028096 -0.00253291 0 -1 -1
48 1 13 5.19979 92.5179 99.6899 -0.00158795 -0.00513175 0.00181816 0 -1 -1
95 1 8 7.91114 92.8324 98.9334 -0.0117248 -0.0102724 0.00746517 0 -1 -1
35 1 4 93.2335 88.7978 99.5801 0.000896209 0.00304824 -0.000866695 -1 -1 -1
75 1 8 92.9934 86.6893 99.8803 -0.00735639 0.00311704 -0.0018634 -1 -1 -1
77 1 8 92.8291 88.6297 98.6152 0.0156907 0.00780131 -0.020374 -1 -1 -1
25 1 14 96.25 91.8482 99.3774 -0.00968606 -0.00642791 -0.00221318 -1 -1 -1
26 1 14 94.9376 92.2028 99.6719 0.00318813 0.00819299 -0.00326555 -1 -1 -1
28 1 40 93.962 91.2634 99.6852 0.00285702 0.00221852 0.00481135 -1 -1 -1
29 1 14 94.2528 89.8839 99.4691 0.00108774 -0.00442048 0.00069724 -1 -1 -1
30 1 14 95.5751 89.4673 99.096 0.00579441 2.69596e-05 0.000781239 -1 -1 -1
31 1 14 96.5747 90.4993 99.05 9.57744e-05 0.00255575 -0.00370599 -1 -1 -1
32 1 14 95.9715 88.0954 98.9107 0.00211797 -0.00298751 -0.00565526 -1 -1 -1
33 1 4 94.9664 86.9668 99.0369 -0.00374107 0.00048663 0.004756 -1 -1 -1
34 1 4 93.7766 87.3884 99.8862 0.00286757 -0.00398776 0.000544925 -1 -1 -1
36 1 13 97.8662 90.1324 98.7368 -0.0038201 0.00710304 0.00609417 -1 -1 -1
37 1 40 98.2629 88.8281 98.4903 -0.000617225 0.005135 -0.00271373 -1 -1 -1
38 1 13 97.3131 87.8198 98.5505 0.000823665 -0.000100861 -0.00537217 -1 -1 -1
58 1 41 99.5294 88.5107 98.0792 -0.000638828 -0.00141298 7.14219e-05 -1 -1 -1
73 1 8 94.5806 86.7434 98.0433 0.0147382 -0.0379203 0.0216145 -1 -1 -1
74 1 8 95.4164 86.1092 99.4901 -0.00115486 -0.0068034 -0.00857852 -1 -1 -1
79 1 15 98.6245 90.8651 98.6543 -0.0048517 0.0168111 0.0157334 -1 -1 -1
80 1 15 97.686 86.8055 98.3806 0.00128227 0.0262076 -0.0103932 -1 -1 -1
22 1 14 0.180867 96.5675 99.2023 0.0092542 0.00243575 -0.000698732 0 -1 -1
39 1 4 1.61383 96.2534 98.892 0.00314489 0.00181652 -0.00181018 0 -1 -1
40 1 14 1.63791 94.8172 99.3522 -0.00500968 0.00230718 6.15252e-05 0 -1 -1
41 1 14 0.347352 94.3726 99.7052 -0.00120332 -0.00138738 0.00556099 0 -1 -1
45 1 14 2.80785 94.0626 99.5389 -0.00636542 0.00701691 -0.00650749 0 -1 -1
46 1 13 4.12039 94.6571 99.4421 -0.00405802 0.00710426 -0.00642489 0 -1 -1
47 1 14 5.32695 93.9297 99.5066 0.00801281 -0.00235077 0.00296288 0 -1 -1
55 1 41 0.426255 98.8235 98.5562 -0.00210032 -0.00332999 0.00323659 0 -1 -1
81 1 8 1.77876 96.2809 97.8167 -0.00681365 -0.0134704 -0.00332186 0 -1 -1
84 1 15 4.27593 95.6738 99.2192 0.00742651 0.00182818 0.0055199 0 -1 -1
92 1 42 1.13033 98.4402 98.0497 0.00202418 -0.00158409 -0.0267385 0 -1 -1
93 1 8 6.61034 94.8429 98.1963 -0.0119655 -0.0298492 -0.00414035 0 -1 -1
56 1 4 6.64571 94.5866 99.2162 -0.000909811 -0.00144973 -0.00634814 0 -1 -1
82 1 8 2.20891 96.8927 99.5649 -0.00544042 -0.0214246 -0.0198582 0 -1 -1
57 1 3 7.87324 93.743 99.5436 0.0034217 -0.00321972 0.00348627 0 -1 -1
94 1 8 8.73627 94.2877 99.3027 0.0361146 0.00244534 -0.0193943 0 -1 -1
102 1 8 6.67263 95.5216 99.7102 -0.00195892 -0.0221808 -0.00924789 0 -1 -1
70 1 8 93.1127 96.3048 99.6502 -0.031338 -0.0191684 -0.0183328 -1 -1 -1
19 1 14 97.0093 94.4838 99.6488 0.00668764 0.000593129 -0.00495176 -1 -1 -1
20 1 14 97.946 95.5811 99.7489 -0.0040354 0.00662801 -0.00639668 -1 -1 -1
11 1 14 97.4255 96.9076 99.7651 -0.00224511 0.00469297 0.000826482 -1 -1 -1
71 1 8 98.0679 92.9697 98.8142 0.0102921 0.00367945 0.00514019 -1 -1 -1
66 1 8 93.4186 98.9777 99.7934 0.0123581 -0.0134406 0.0106905 -1 -1 -1
72 1 8 93.6633 93.951 99.3684 -0.00711067 0.0197412 0.00512551 -1 -1 -1
24 1 4 97.324 93.0198 99.5261 -0.00642611 0.00988004 0.00218816 -1 -1 -1
23 1 40 99.6642 97.8676 99.0808 0.00380381 0.00762106 -0.00241578 -1 -1 -1
21 1 14 99.3985 95.47 99.6061 -0.00792942 0.0013871 -5.96109e-05 -1 -1 -1
7 1 14 96.3498 99.5355 99.8135 -0.00790116 0.00387169 -0.00137261 -1 -1 -1
8 1 14 97.73 99.3267 99.5693 -0.00171764 0.00486892 -0.00824758 -1 -1 -1
10 1 14 98.3181 98.0193 99.537 -0.00449008 -0.00293647 -0.00394623 -1 -1 -1
18 1 14 95.5722 94.774 99.82 -0.00463849 0.00157381 0.0026438 -1 -1 -1
27 1 4 94.5751 93.6045 99.9304 0.00331722 0.00508778 0.00130616 -1 -1 -1
ITEM: TIMESTEP
10000
ITEM: NUMBER OF ATOMS
102
ITEM: BOX BOUNDS pp pp pp
0.0000000000000000e+00 1.0000000000000000e+02
0.0000000000000000e+00 1.0000000000000000e+02
0.0000000000000000e+00 1.0000000000000000e+02
ITEM: ATOMS id mol type x y z vx vy vz ix iy iz
68 1 8 1.76591 0.274754 1.06372 0.016744 0.0129026 -0.0196926 0 0 0
54 1 3 6.21451 0.121285 96.1469 0.00623646 -0.000778384 0.00139678 0 0 -1
89 1 8 5.95282 0.755961 96.9948 0.014159 0.0196751 0.00883982 0 0 -1
90 1 8 6.09751 0.792984 95.275 0.00542282 0.000578574 -0.0220418 0 0 -1
66 1 8 1.95822 0.108001 98.6241 -0.00820627 0.0100568 0.0228927 0 0 -1
80 1 15 91.9646 93.0776 3.42509 0.00804847 0.0012306 0.0262048 -1 -1 0
58 1 41 92.0605 93.0069 0.776766 -0.00171121 0.00785911 0.00389127 -1 -1 0
50 1 40 95.6789 89.5287 1.69646 -0.00544597 -0.00811288 -0.00314659 -1 -1 0
99 1 42 95.5924 87.5929 1.65583 -0.0163065 0.00444302 -0.000609461 -1 -1 0
60 1 41 95.5051 88.3028 2.22576 -0.0074253 -0.00620207 -0.0036928 -1 -1 0
51 1 13 95.6842 90.599 2.4959 0.00412482 0.007781 -0.00934417 -1 -1 0
52 1 13 96.2059 91.8957 2.1499 0.00619106 0.00544967 -0.00525959 -1 -1 0
86 1 15 95.2703 90.5136 3.50431 0.0284895 0.00946877 -0.00764281 -1 -1 0
43 1 14 96.6424 91.9629 0.789514 -0.00971488 -0.00142127 -0.00125626 -1 -1 0
87 1 15 96.3342 92.7164 2.82508 -0.00329511 -0.0196123 -0.0186574 -1 -1 0
42 1 13 97.2418 93.1515 0.369071 -0.00346097 -0.00998745 0.00351095 -1 -1 0
49 1 14 96.064 89.6318 0.345293 0.0042549 0.00789996 0.000738995 -1 -1 0
15 1 4 1.52034 99.2924 0.619426 0.00292661 -0.00134944 -0.00460341 0 -1 0
67 1 8 1.97719 98.5278 1.18151 -0.00551537 -0.042836 0.00159764 0 -1 0
74 1 8 93.0362 93.4155 5.65438 -0.024473 0.00946268 0.00967916 -1 -1 0
38 1 13 92.8188 93.6045 3.03928 -0.000432359 -0.00127704 0.000388366 -1 -1 0
37 1 40 92.971 93.6094 1.6381 0.00248024 0.0106224 -0.00372832 -1 -1 0
75 1 8 93.9641 95.1041 7.1776 -0.0247734 0.0108103 0.0227716 -1 -1 0
73 1 8 92.5172 95.1054 5.5251 -0.00763332 0.00691178 0.00778604 -1 -1 0
33 1 4 93.3081 94.4178 5.33949 0.00372992 -0.00245846 0.00477064 -1 -1 0
77 1 8 94.4211 97.1879 5.79857 0.0200674 -0.0104953 -0.0111593 -1 -1 0
32 1 14 93.6086 94.4023 3.86517 -0.00266391 -0.00157391 0.00221955 -1 -1 0
34 1 4 94.4319 94.9461 6.19961 -0.00256257 -0.00179042 -0.00339315 -1 -1 0
72 1 8 96.7834 98.9237 1.01279 0.0266187 0.0150725 -0.0169057 -1 -1 0
76 1 8 95.2183 94.1957 6.15414 -0.00566901 0.00781056 -0.0202575 -1 -1 0
36 1 13 93.9942 94.4816 1.06826 0.00944789 0.0107836 0.00881034 -1 -1 0
18 1 14 98.1702 97.4479 0.364273 0.00536538 0.00526576 -0.00227794 -1 -1 0
35 1 4 94.9836 96.2904 5.56368 0.00530501 -0.0057005 0.00109354 -1 -1 0
78 1 8 96.0076 96.3881 5.98753 0.00767854 -0.0216974 -0.00737367 -1 -1 0
98 1 42 95.9072 98.4059 5.14807 0.00924772 -0.0237736 0.0102036 -1 -1 0
101 1 8 97.9454 98.4024 2.1725 0.0391162 0.0018505 -0.00947394 -1 -1 0
16 1 4 100.016 99.2209 0.730815 0.00521765 0.00749827 0.000410433 -1 -1 0
27 1 4 97.2903 98.0974 1.39049 0.00141993 0.00101871 -0.00100346 -1 -1 0
30 1 14 94.5088 95.3449 3.31512 -0.00289556 0.00107292 -0.00141586 -1 -1 0
31 1 14 94.8166 95.2886 1.90611 0.000436421 0.0034655 0.00558248 -1 -1 0
83 1 15 97.3908 94.0081 0.998443 -0.00126109 0.00473518 -0.0201461 -1 -1 0
29 1 14 95.1481 96.2885 4.11167 0.00169973 -0.00109115 0.000340028 -1 -1 0
59 1 41 96.4399 98.3489 4.29299 -0.0122314 -0.00448456 0.00532308 -1 -1 0
25 1 14 95.7489 96.168 1.33208 -0.00307634 -0.00178596 -0.00262897 -1 -1 0
28 1 40 95.9701 97.2663 3.50851 0.00867544 0.00599936 -0.00170953 -1 -1 0
69 1 8 99.8221 99.1572 1.78755 -0.000771009 -0.0285877 0.0204765 -1 -1 0
26 1 14 96.3279 97.1664 2.11335 0.0189594 -0.00870642 -0.008434 -1 -1 0
70 1 8 99.5808 100.118 0.293648 -0.0203194 -0.0169163 0.00921483 -1 -1 0
82 1 8 99.3141 91.8152 96.7373 0.0157036 0.0119386 0.0140136 -1 -1 -1
5 1 13 4.13018 98.9487 96.7417 -0.000773111 0.00123068 0.00230589 0 -1 -1
95 1 8 95.6613 88.0241 95.598 -0.0135656 0.00646285 0.00904703 -1 -1 -1
94 1 8 95.8595 86.2548 95.5574 0.00738563 -0.0101357 0.00933337 -1 -1 -1
96 1 8 94.7513 87.1208 96.8027 -0.00786755 0.00628447 0.00353114 -1 -1 -1
57 1 3 95.731 87.1376 96.2896 0.0021835 -0.000909624 0.00674232 -1 -1 -1
93 1 8 97.8375 87.2758 97.0446 0.00676319 0.0269368 0.00899193 -1 -1 -1
56 1 4 96.8018 87.3199 97.3735 -0.00164738 -0.00199351 0.0044723 -1 -1 -1
84 1 15 97.4435 89.8938 96.6642 -0.0041333 -0.0126777 0.0280375 -1 -1 -1
39 1 4 98.4159 92.4074 96.8054 -0.0062092 0.00381687 -0.00293737 -1 -1 -1
47 1 14 96.7016 88.4997 98.1868 0.00223177 -0.00964208 -4.72605e-05 -1 -1 -1
46 1 13 97.0705 89.7862 97.7189 -0.00222715 -0.00308812 0.00126575 -1 -1 -1
102 1 8 96.5693 86.4945 97.9863 0.0163221 -0.0272445 -0.00737372 -1 -1 -1
48 1 13 96.2277 88.4995 99.5251 0.00216414 0.000526407 0.00344656 -1 -1 -1
85 1 15 95.8823 87.5073 99.8488 -0.0232523 -0.0096133 0.0240149 -1 -1 -1
45 1 14 97.1276 90.9009 98.5977 -0.00588405 0.00606585 0.00260808 -1 -1 -1
40 1 14 97.6523 92.1632 98.1436 -0.00247557 -0.00324911 0.00246786 -1 -1 -1
81 1 8 97.8473 92.2869 95.9343 0.0225598 -0.000843895 -0.0190942 -1 -1 -1
17 1 14 99.4648 97.9812 100.022 -0.00565637 0.00126554 0.000121427 -1 -1 -1
65 1 8 3.09669 98.9884 99.2892 0.00165914 0.0325801 -0.0081583 0 -1 -1
64 1 8 1.95113 95.9584 94.6796 0.0166972 0.0128886 -0.00613651 0 -1 -1
9 1 4 2.51388 95.8393 95.6003 0.000447184 0.00210423 0.00103592 0 -1 -1
63 1 8 3.13529 94.9406 95.7531 0.00212 -0.015442 -0.0213949 0 -1 -1
92 1 42 99.6832 93.8273 94.9284 -0.0269536 0.00117228 0.00334128 -1 -1 -1
23 1 40 99.9863 94.4767 96.6027 0.00354647 -0.00998765 0.00196123 -1 -1 -1
55 1 41 0.475601 93.8711 95.4722 0.000520672 0.00228545 0.00200074 0 -1 -1
8 1 14 1.58546 96.3437 96.7197 0.00024525 -0.000805295 -0.00106462 0 -1 -1
7 1 14 2.08098 97.4944 97.263 -0.00309796 -0.00178528 0.00747264 0 -1 -1
3 1 14 3.55796 96.9021 95.6634 -0.00669836 -0.00377285 0.00512129 0 -1 -1
4 1 14 3.30936 97.8199 96.6267 -0.00195095 0.00341532 -0.00593525 0 -1 -1
13 1 14 1.39758 98.0506 98.3811 0.00479529 0.00504655 -0.00273933 0 -1 -1
10 1 14 0.452376 95.7068 97.1827 -0.0020415 -0.00224233 -0.0011092 0 -1 -1
61 1 15 4.6319 96.1937 94.0494 -0.0129885 -0.012559 0.0095531 0 -1 -1
2 1 13 4.65684 96.9819 94.843 -0.00183095 0.00152922 0.00446921 0 -1 -1
12 1 14 0.14157 97.5331 98.8651 0.0031843 0.00026991 0.00242006 0 -1 -1
14 1 4 2.07021 99.2104 99.1466 -0.0145151 0.00114579 -0.00547293 0 -1 -1
1 1 40 5.62561 97.9551 95.0464 -0.00194101 -0.00293537 -0.001629 0 -1 -1
11 1 14 99.6779 96.3127 98.2572 -0.00285108 0.0050403 0.00477129 -1 -1 -1
53 1 41 6.74796 97.8669 94.2937 0.00164647 -0.00956319 0.00755474 0 -1 -1
71 1 8 95.3587 96.6534 99.2752 -0.00207272 -0.00410071 -0.0322288 -1 -1 -1
41 1 14 97.6521 93.2286 99.0111 -0.000409772 0.00663515 -0.0112041 -1 -1 -1
20 1 14 98.4679 95.6741 98.7499 0.00373064 0.00111813 -0.00189805 -1 -1 -1
22 1 14 98.867 93.8153 97.1265 0.00181752 0.00270447 0.00362285 -1 -1 -1
21 1 14 98.2872 94.3008 98.3478 -0.00190807 0.00487649 0.00337406 -1 -1 -1
6 1 14 5.29669 98.9741 95.9871 0.000423164 -0.00303568 -0.00624701 0 -1 -1
100 1 8 95.8939 95.2023 99.3666 0.0135151 0.0289201 -0.0157508 -1 -1 -1
88 1 42 7.24627 98.6204 94.3141 -0.00633044 0.0107304 0.0170219 0 -1 -1
24 1 4 96.1161 96.1415 99.882 0.000421532 0.00106695 -4.82918e-05 -1 -1 -1
62 1 15 3.89533 99.7063 97.4307 -0.0166984 0.000858164 -0.0124749 0 -1 -1
19 1 14 97.5991 96.3667 99.6407 0.00243443 -0.00806703 -0.011877 -1 -1 -1
79 1 15 94.1297 94.408 99.9892 -0.0101555 0.0107282 0.026295 -1 -1 -1
91 1 8 7.24753 99.8193 96.2334 -0.00364463 0.00870409 -0.01036 0 -1 -1
97 1 42 92.1318 93.2568 99.8742 0.00540088 -0.0107752 -0.0270757 -1 -1 -1
44 1 14 96.5337 90.8856 99.8857 0.000675005 -0.00420267 -0.00483743 -1 -1 -1
ITEM: TIMESTEP
20000
ITEM: NUMBER OF ATOMS
102
ITEM: BOX BOUNDS pp pp pp
0.0000000000000000e+00 1.0000000000000000e+02
0.0000000000000000e+00 1.0000000000000000e+02
0.0000000000000000e+00 1.0000000000000000e+02
ITEM: ATOMS id mol type x y z vx vy vz ix iy iz
77 1 8 1.13797 0.59807 3.9585 0.0162042 -0.0138905 -0.0212172 0 0 0
75 1 8 99.2429 0.822065 5.58644 -0.00219844 0.0271137 -0.00481724 -1 0 0
73 1 8 98.9542 2.1442 3.56523 0.0210719 0.00588068 0.0111371 -1 0 0
80 1 15 96.3289 1.52303 1.83263 -0.00219362 -0.0194977 -0.00312196 -1 0 0
38 1 13 97.0508 0.723088 1.48022 0.000333336 0.00594135 0.00129614 -1 0 0
74 1 8 97.3249 1.63805 3.84963 0.0226605 0.011552 -0.00794566 -1 0 0
33 1 4 98.3443 1.22486 3.6159 0.0100721 -0.000781548 0.00623182 -1 0 0
32 1 14 98.227 0.55372 2.30215 0.00481335 -0.00493657 -0.0090189 -1 0 0
34 1 4 99.0412 0.283384 4.64022 0.00211708 -0.00340766 -0.00365967 -1 0 0
37 1 40 96.9231 0.0650884 0.255526 -0.000616753 -0.00377643 0.00132385 -1 0 0
58 1 41 96.0148 0.560529 99.3803 0.00164371 0.00106165 0.00295483 -1 0 -1
97 1 42 95.8101 0.102775 98.6123 -0.00415022 -0.023807 -0.005037 -1 0 -1
67 1 8 2.61244 92.0488 1.66497 -0.036342 -0.0288284 0.0049453 0 -1 0
15 1 4 3.36638 92.1439 0.863155 -0.00188438 -0.00467702 0.00570926 0 -1 0
68 1 8 4.27385 91.8421 1.31348 -0.0171319 0.0016632 0.00182325 0 -1 0
52 1 13 95.2819 97.2336 1.92056 0.00398135 0.000755044 -0.00521852 -1 -1 0
69 1 8 3.47451 94.2991 1.06302 -0.02381 0.0124521 -0.00828568 0 -1 0
101 1 8 2.18309 95.7828 1.80315 0.0028237 -0.0108008 -0.00731662 0 -1 0
25 1 14 99.7926 97.7014 0.41783 -0.00588838 0.00199353 -0.00329367 -1 -1 0
98 1 42 2.91093 97.3258 3.0455 -0.0345058 0.0274869 -0.00490398 0 -1 0
27 1 4 1.80512 96.1866 0.85254 -0.0023393 0.00258651 -0.00221777 0 -1 0
59 1 41 2.1425 97.785 3.30574 -0.00314581 -0.00667736 0.00318884 0 -1 0
16 1 4 3.18306 93.5511 0.327301 0.00577581 0.000206762 0.000321294 0 -1 0
43 1 14 95.3405 96.4745 0.758179 -0.00345226 0.000151422 -0.0024486 -1 -1 0
26 1 14 0.876608 97.3332 1.2669 0.00195428 0.00468428 0.0018659 0 -1 0
35 1 4 0.398647 99.8101 4.08741 0.0041218 0.00277874 0.00353132 0 -1 0
28 1 40 1.12725 98.1381 2.41173 -0.00261447 -0.00399743 -0.00294168 0 -1 0
29 1 14 0.319063 99.2195 2.7254 0.00715609 0.000694264 -2.68605e-05 0 -1 0
31 1 14 98.9385 98.7917 0.718747 0.0104459 -0.00126147 0.00061706 -1 -1 0
78 1 8 0.624412 99.0197 4.77538 0.0156964 0.00153785 0.00504348 0 -1 0
99 1 42 91.9656 99.0751 2.35757 0.0183019 0.00164266 -0.00771021 -1 -1 0
60 1 41 91.705 98.387 1.74562 0.00143361 -0.00321207 -0.00387426 -1 -1 0
50 1 40 92.8051 97.5729 1.45093 0.000674959 0.00849695 -0.00368283 -1 -1 0
49 1 14 92.9007 96.7639 0.29284 0.0038362 0.00334315 0.00821156 -1 -1 0
51 1 13 93.9954 97.7785 2.29051 -0.00962809 -0.000951971 -0.00626929 -1 -1 0
86 1 15 93.8898 98.2331 3.25947 0.000275926 0.00906578 0.00460776 -1 -1 0
87 1 15 96.1411 97.369 2.57226 -0.00643686 0.00698476 -0.0208126 -1 -1 0
76 1 8 98.4156 99.4476 4.88426 0.0243881 0.00284121 -0.00482323 -1 -1 0
42 1 13 96.5578 95.9077 0.356163 0.000932899 0.00185622 0.00235446 -1 -1 0
30 1 14 99.1853 99.5316 1.92966 -0.0038328 0.00566859 -0.00617435 -1 -1 0
83 1 15 97.3708 96.0663 0.936282 -0.0257832 0.0216679 -0.00557429 -1 -1 0
18 1 14 1.07142 95.0024 0.111126 0.00176598 0.00606165 -0.00167829 0 -1 0
72 1 8 2.59547 96.7171 0.328154 -0.0247785 -0.00215307 -0.00557861 0 -1 0
65 1 8 3.09011 90.1651 0.146813 0.00329228 -0.00422221 -0.0301094 0 -1 0
88 1 42 2.4733 85.0988 95.9779 -0.0167579 0.0244169 -0.0301769 0 -1 -1
53 1 41 1.5721 85.4529 96.0634 -0.000954137 0.00273061 0.00111759 0 -1 -1
61 1 15 99.4704 87.0918 95.8539 -0.0212897 -0.0117905 -0.0179295 -1 -1 -1
2 1 13 0.225958 87.4074 96.5306 -0.00762999 -0.00561139 -0.000995723 0 -1 -1
1 1 40 1.43613 86.6767 96.6411 -0.00641963 0.00356705 -0.00461503 0 -1 -1
9 1 4 99.0488 89.5959 97.0233 -0.000370832 0.0029777 0.00178634 -1 -1 -1
3 1 14 0.136145 88.6953 97.1765 0.00540474 -0.00276766 0.00251463 0 -1 -1
5 1 13 2.42995 88.462 98.0847 -0.00219235 0.000233847 -0.00249137 0 -1 -1
8 1 14 99.6427 90.8108 97.7709 -0.00220984 -0.00502798 0.000794985 -1 -1 -1
4 1 14 1.24207 89.2451 97.8839 -0.00133599 0.00712779 0.00389651 0 -1 -1
6 1 14 2.50315 87.2123 97.424 -0.000850695 -0.000335201 0.00129967 0 -1 -1
62 1 15 3.25791 88.8198 98.6532 -0.00616273 -0.00306723 0.00575984 0 -1 -1
7 1 14 0.892941 90.5122 98.3456 -0.00500143 -0.0057308 -0.00456259 0 -1 -1
13 1 14 1.61373 91.4389 99.1562 0.00228224 -0.000646583 0.00719067 0 -1 -1
91 1 8 4.30706 86.4471 96.6796 0.00878646 0.00712924 -0.0123942 0 -1 -1
90 1 8 4.38617 86.8554 98.3462 -0.00670584 0.0167584 0.0165315 0 -1 -1
54 1 3 3.74215 86.4067 97.6251 -0.000488142 -0.00138078 0.000931119 0 -1 -1
89 1 8 3.63438 85.3411 97.9051 -0.0113871 -0.000552395 0.0236203 0 -1 -1
12 1 14 1.04554 92.7345 99.2188 -0.00162499 0.000843534 0.0059286 0 -1 -1
66 1 8 3.84614 91.3312 99.0362 0.00498233 0.0176966 0.00704814 0 -1 -1
14 1 4 3.05512 91.1882 99.7193 0.00487624 0.00660195 0.00144294 0 -1 -1
64 1 8 98.778 89.7994 95.9634 0.00495889 0.00263777 -0.0268899 -1 -1 -1
63 1 8 98.108 89.1374 97.4431 0.00869802 -0.0148149 -0.0186009 -1 -1 -1
82 1 8 95.0804 92.9767 97.4924 0.000563876 0.000123775 0.000918304 -1 -1 -1
55 1 41 97.217 91.4612 96.4665 0.00682482 0.00500214 -0.0022578 -1 -1 -1
92 1 42 96.371 91.1707 96.7543 -0.0185515 -0.0075764 -0.000617471 -1 -1 -1
10 1 14 99.0133 92.0452 97.9361 0.0120352 -0.00385818 0.0043194 -1 -1 -1
23 1 40 97.7681 92.302 97.3475 -0.00696576 2.5972e-05 -0.00235358 -1 -1 -1
102 1 8 89.8882 95.8778 97.6816 0.00458252 -0.00537985 0.00444349 -1 -1 -1
95 1 8 91.9634 95.9789 95.575 -0.0093945 0.019383 0.0394833 -1 -1 -1
93 1 8 90.5709 94.3564 97.1559 -0.00278574 0.00507167 0.0140605 -1 -1 -1
94 1 8 90.3501 95.7385 95.2159 0.00658902 -0.0159688 -0.0138473 -1 -1 -1
57 1 3 90.973 96.1007 96.0153 -0.0136131 0.00560262 -0.00113326 -1 -1 -1
56 1 4 90.8108 95.3983 97.3417 -0.00276433 -0.00386973 -0.000515755 -1 -1 -1
47 1 14 91.9505 95.6953 98.2328 0.000362398 -0.00633867 -0.00385488 -1 -1 -1
46 1 13 93.1914 95.2043 97.9586 0.000153155 0.00114474 -0.00764123 -1 -1 -1
96 1 8 90.623 97.1596 96.1076 0.000862226 0.0192028 -0.031582 -1 -1 -1
48 1 13 91.8131 96.5397 99.4012 0.00139741 0.00307347 0.00657726 -1 -1 -1
36 1 13 97.8124 99.0832 99.9144 -0.00767302 0.00685974 -0.000373395 -1 -1 -1
84 1 15 93.4416 94.6568 97.0913 -0.00869257 0.0228219 -0.00405641 -1 -1 -1
79 1 15 97.7521 98.7281 98.9343 0.0133761 -0.0120923 -0.0128278 -1 -1 -1
20 1 14 99.0621 94.2316 99.0229 0.000238174 -0.00461992 0.0108396 -1 -1 -1
11 1 14 99.7007 93.0187 98.7167 -0.000993289 -0.00284572 0.00607662 -1 -1 -1
24 1 4 99.4931 96.6833 99.3494 0.00759462 -0.000648466 -0.00239028 -1 -1 -1
85 1 15 90.8315 96.9003 99.6816 -0.0105214 -0.0207413 -0.00743801 -1 -1 -1
39 1 4 95.7419 93.8202 97.3472 0.00247632 -0.00768327 -0.0075525 -1 -1 -1
100 1 8 98.519 96.8283 99.065 0.00163341 0.00693542 -0.0190324 -1 -1 -1
21 1 14 97.6613 94.3164 98.6891 -0.00171477 0.0023516 0.00192025 -1 -1 -1
41 1 14 96.624 95.1412 99.215 -0.000584282 -9.38037e-05 -0.0026888 -1 -1 -1
45 1 14 94.2779 95.3656 98.854 -0.000777213 -0.00247344 -0.00920299 -1 -1 -1
22 1 14 97.1279 93.4858 97.6912 0.000648375 0.00314713 0.00887574 -1 -1 -1
40 1 14 95.5091 94.8042 98.4842 -0.00602485 -0.00598008 0.00530966 -1 -1 -1
81 1 8 95.6759 94.4015 96.4209 0.0396893 0.0225172 0.0127694 -1 -1 -1
71 1 8 0.111876 96.8204 98.4656 -0.00102519 -0.00797814 -0.0210988 0 -1 -1
19 1 14 99.776 95.2631 99.6656 0.0071712 -0.00648417 0.00200659 -1 -1 -1
70 1 8 3.90682 93.7747 99.5326 -0.022233 0.0152005 0.00482966 0 -1 -1
44 1 14 94.1772 96.2017 100 -0.00336162 -0.00327813 0.0128178 -1 -1 -1
17 1 14 1.74848 93.7658 99.8601 0.000341066 -0.00280096 -0.00398373 0 -1 -1
ITEM: TIMESTEP
30000
ITEM: NUMBER OF ATOMS
102
ITEM: BOX BOUNDS pp pp pp
0.0000000000000000e+00 1.0000000000000000e+02
0.0000000000000000e+00 1.0000000000000000e+02
0.0000000000000000e+00 1.0000000000000000e+02
ITEM: ATOMS id mol type x y z vx vy vz ix iy iz
50 1 40 0.408796 0.554939 97.9182 0.00371591 0.000450251 -0.00514078 0 0 -1
99 1 42 1.84347 1.80628 97.4616 -0.0030193 -0.00127035 0.0229519 0 0 -1
94 1 8 94.5932 3.58775 98.7382 0.0268585 -0.00233463 -0.00170978 -1 0 -1
57 1 3 95.3115 2.77722 98.9135 0.00610057 -8.43022e-05 -0.000314705 -1 0 -1
96 1 8 94.8683 2.05568 99.6809 -0.0308496 0.0288289 0.0213494 -1 0 -1
102 1 8 94.6572 1.54815 97.3061 0.00710299 -0.0011958 0.0352494 -1 0 -1
47 1 14 96.6262 0.961348 97.7438 0.00460481 0.000661321 -0.00127734 -1 0 -1
93 1 8 95.7317 2.74554 96.8774 -0.0336084 -0.00972155 0.00915296 -1 0 -1
95 1 8 96.112 3.28974 99.3071 -0.0084669 0.0114941 0.0359376 -1 0 -1
56 1 4 95.5586 2.00725 97.6621 0.000419842 -0.00512198 0.00106282 -1 0 -1
49 1 14 99.0202 0.293089 97.971 0.000314692 0.000710312 -0.00299158 -1 0 -1
60 1 41 0.917147 1.76972 97.5796 0.00350779 -0.000742088 -0.00623387 0 0 -1
85 1 15 98.2844 2.27901 97.4137 0.0182239 -0.0119351 0.0203244 -1 0 -1
48 1 13 98.0196 1.23573 97.6677 -0.00549851 0.00116061 -0.00416526 -1 0 -1
69 1 8 0.190114 91.2112 2.15223 0.0126735 0.00339181 -0.00804545 0 -1 0
10 1 14 95.3357 93.4749 0.735904 -0.00726116 -0.00134982 0.00432786 -1 -1 0
11 1 14 96.7187 93.0819 0.525321 -0.00226385 -0.001065 -0.000106249 -1 -1 0
101 1 8 1.18057 91.372 0.466365 0.00666242 -0.0132216 0.0130696 0 -1 0
90 1 8 93.6471 87.0849 4.24035 0.000999222 0.00423388 0.0144765 -1 -1 0
88 1 42 90.3879 88.3345 4.16654 0.049447 0.0295773 0.00559588 -1 -1 0
53 1 41 90.385 89.1775 3.72981 0.00436491 -0.00422291 -0.000300407 -1 -1 0
2 1 13 91.5442 90.883 2.71753 -0.0133219 -0.00204479 -0.00123354 -1 -1 0
61 1 15 90.632 91.4065 2.55182 -0.00226721 0.0216076 -0.0127603 -1 -1 0
1 1 40 91.6018 89.6431 3.39192 -0.00159363 -0.00109935 0.00332936 -1 -1 0
63 1 8 92.7546 93.4397 2.38208 0.00460453 0.0290346 -0.0108292 -1 -1 0
3 1 14 92.7595 91.3303 2.12706 -0.00154221 0.000276261 0.00112062 -1 -1 0
9 1 4 93.015 92.6907 1.65038 0.00214333 0.0140728 -0.00362074 -1 -1 0
64 1 8 92.3385 92.8912 0.740979 5.01908e-05 0.000497051 -0.00287561 -1 -1 0
89 1 8 92.3071 87.5579 5.24162 -0.0169302 -0.0165615 -0.0177748 -1 -1 0
91 1 8 91.966 86.6828 3.86524 0.00126775 -0.00580202 -0.0121336 -1 -1 0
16 1 4 99.302 90.6813 1.91222 -0.00657883 -0.00268009 -0.000690452 -1 -1 0
70 1 8 99.5092 89.785 1.43214 -0.00555684 -0.00633245 -0.0192464 -1 -1 0
54 1 3 92.6542 87.4747 4.22351 0.00631437 -0.00408376 0.001924 -1 -1 0
68 1 8 98.9463 89.756 3.9555 0.0259967 0.0157142 0.0299082 -1 -1 0
15 1 4 98.4921 90.4844 3.24148 0.001142 0.00762107 0.00727814 -1 -1 0
6 1 14 92.7232 88.8424 3.51836 -0.000683605 -0.000483308 -0.00532338 -1 -1 0
67 1 8 98.437 91.4357 3.7273 -0.0286242 0.00484807 0.0224844 -1 -1 0
17 1 14 98.5946 91.6761 1.00971 -0.00571713 0.00318365 0.00437535 -1 -1 0
66 1 8 97.1484 89.1355 2.3916 0.0114844 -0.0206333 -0.0159416 -1 -1 0
7 1 14 95.0651 91.4919 2.09394 -0.00424055 -0.0043461 -0.00427403 -1 -1 0
14 1 4 97.0496 90.1111 2.86248 0.00272824 0.0067689 -0.00272405 -1 -1 0
62 1 15 94.8721 88.9178 3.25435 -0.0025612 -0.0148624 -0.0159652 -1 -1 0
65 1 8 96.543 90.0418 3.80236 -0.0281895 -0.0428148 -0.0180547 -1 -1 0
5 1 13 93.9541 89.436 3.09686 0.00478681 0.00428546 -0.00312313 -1 -1 0
12 1 14 97.2653 91.8951 1.14544 0.0044132 0.00132602 0.00167952 -1 -1 0
13 1 14 96.4191 91.1546 1.99808 -1.55171e-05 -0.00541506 -0.00481414 -1 -1 0
4 1 14 93.9681 90.7488 2.52819 -0.001238 0.00404907 0.00253481 -1 -1 0
8 1 14 94.5311 92.6108 1.47714 -0.00645454 0.00189145 0.00225766 -1 -1 0
18 1 14 99.3532 92.3517 -0.00944091 -0.00178764 -0.00293546 -0.00198433 -1 -1 0
55 1 41 93.5963 95.0331 0.214539 -7.40216e-05 0.00161777 0.00332317 -1 -1 0
72 1 8 0.639565 90.9911 98.783 -0.00307098 -0.025892 0.0124787 0 -1 -1
98 1 42 4.35436 91.8939 100.131 0.0168725 -0.0146206 -0.0145626 0 -1 -1
97 1 42 1.91602 98.2515 94.891 -0.0178718 0.00212319 -0.020252 0 -1 -1
77 1 8 5.6458 92.9209 97.7647 -0.00148447 0.0120017 -0.0196223 0 -1 -1
38 1 13 3.59522 96.6865 96.1643 -0.0031356 -0.00745197 -0.00948038 0 -1 -1
58 1 41 1.69161 97.2841 94.8338 0.00170576 -0.00127029 -0.00387558 0 -1 -1
32 1 14 4.14937 95.7186 97.0437 -0.000225661 -0.00665038 -0.00524193 0 -1 -1
30 1 14 3.25805 94.7791 97.6794 0.00129093 0.00648651 0.00175365 0 -1 -1
37 1 40 2.27453 96.5654 95.7932 0.00575996 0.00511228 0.0050372 0 -1 -1
31 1 14 1.86194 94.8285 97.515 -0.000425453 0.00171623 0.00236772 0 -1 -1
25 1 14 0.964355 93.8915 98.1478 -0.0053971 -0.00256718 0.00604252 0 -1 -1
71 1 8 99.109 93.1125 97.2312 0.00773564 -0.00148751 -0.0184021 -1 -1 -1
36 1 13 1.40972 95.7243 96.5226 0.00124401 -0.000454551 0.000188153 0 -1 -1
73 1 8 6.025 94.7566 96.4197 -0.00143466 -0.0102975 -0.0102963 0 -1 -1
79 1 15 0.339194 95.7978 96.2515 -0.0135414 0.000536126 -0.000820585 0 -1 -1
33 1 4 5.69256 95.5421 97.1587 0.00170668 -0.00318144 0.00518193 0 -1 -1
26 1 14 1.55265 92.8515 98.8783 0.0064744 0.00184954 -0.00665043 0 -1 -1
29 1 14 3.80411 93.8111 98.5265 0.00146976 -0.00276983 -0.00189202 0 -1 -1
80 1 15 4.25709 97.4733 95.7068 -0.0143369 -0.0150055 -0.0110594 0 -1 -1
74 1 8 6.19687 96.4892 96.9638 0.0287474 0.000436406 0.00643866 0 -1 -1
34 1 4 6.08125 94.968 98.5128 0.00285863 -0.00201738 -0.00461992 0 -1 -1
35 1 4 5.35287 93.615 98.6172 0.00192722 -0.00388366 0.00268444 0 -1 -1
52 1 13 0.940406 98.2855 98.61 -0.0033693 0.00452781 0.0064684 0 -1 -1
27 1 4 0.701645 91.7815 99.5536 -0.000523034 -0.00851739 0.00558536 0 -1 -1
28 1 40 2.97201 92.8522 99.1331 -0.0027437 -0.00142662 0.00359618 0 -1 -1
87 1 15 1.66118 97.578 98.9238 -0.0225843 0.00428311 0.00311325 0 -1 -1
20 1 14 97.5772 93.9294 99.7385 0.0032066 0.00172718 0.00166869 -1 -1 -1
83 1 15 99.869 96.0024 99.3124 -0.00845759 -0.0141465 -0.0147627 -1 -1 -1
92 1 42 93.4058 95.67 99.6105 0.00503217 -0.00228009 -0.00779606 -1 -1 -1
42 1 13 99.125 96.7543 99.0361 -0.00250064 0.00064258 0.00531747 -1 -1 -1
43 1 14 99.5223 97.9805 98.6136 -0.00576894 -0.00653023 -0.0101904 -1 -1 -1
41 1 14 97.8027 96.4248 98.9699 0.00330086 0.00126584 0.00269629 -1 -1 -1
39 1 4 95.4573 96.9149 98.9698 -0.00360926 0.00297135 0.00251227 -1 -1 -1
24 1 4 99.4427 93.8852 97.9362 0.00879348 0.00217738 0.00084285 -1 -1 -1
19 1 14 98.8094 93.4529 99.2761 0.000199553 0.00233292 -0.0022562 -1 -1 -1
86 1 15 2.38429 99.7695 98.1632 -0.00664542 -0.00691792 -0.0145569 0 -1 -1
23 1 40 94.865 94.6717 100.07 -0.00212051 0.00145965 0.00473056 -1 -1 -1
46 1 13 96.214 99.6907 98.204 0.00208136 0.00109072 0.00556878 -1 -1 -1