LAMMPS Description

     37500  atoms
     30000  bonds
     45000  angles
     0  dihedrals
     0  impropers

     72  atom types
     62  bond types
     172  angle types
     256  dihedral types
     5  improper types

  0.00 100.00 xlo xhi
  0.00 100.00 ylo yhi
  0.00 100.00 zlo zhi

Masses

1 1.008
2 15.999
3 12.011
4 12.011
5 12.011
6 12.011
7 12.011
8 1.008
9 12.011
10 12.011
11 12.011
12 1.008
13 12.011
14 12.011
15 1.008
16 12.011
17 15.999
18 14.007
19 14.007
20 14.007
21 1.008
22 1.008
23 12.011
24 15.999
25 15.999
26 1.008
27 12.011
28 15.999
29 12.011
30 12.011
31 12.011
32 12.011
33 12.011
34 14.007
35 12.011
36 12.011
37 12.011
38 12.011
39 1.008
40 12.011
41 15.999
42 1.008
43 12.011
44 15.999
45 15.999
46 12.011
47 12.011
48 12.011
49 12.011
50 1.008
51 12.011
52 15.999
53 1.008
54 1.008
55 12.011
56 12.011
57 12.011
58 14.007
59 12.011
60 12.011
61 32.06
62 12.011
63 14.007
64 12.011
65 1.008
66 12.011
67 1.008
68 22.99
69 35.453
70 15.9994
71 1.008
72 1e-30

Atoms

1 1 7 -0.24 95.002 71.39 10.872
2 1 8 0.06 95.811 70.728 11.18
3 1 8 0.06 94.97 71.443 9.784
4 1 8 0.06 95.173 72.386 11.28
5 1 8 0.06 94.054 71.002 11.245
6 2 7 -0.24 56.039 68.284 32.02
7 2 8 0.06 55.528 68.953 31.328
8 2 8 0.06 55.824 67.249 31.752
9 2 8 0.06 55.69 68.476 33.035
10 2 8 0.06 57.114 68.458 31.966
11 3 7 -0.24 35.236 4.25 31.586
12 3 8 0.06 35.831 3.909 30.739
13 3 8 0.06 35.835 4.92 32.204
14 3 8 0.06 34.924 3.391 32.18
15 3 8 0.06 34.356 4.78 31.222
16 4 7 -0.24 80.719 59.783 39.551
17 4 8 0.06 80.436 59.666 38.505
18 4 8 0.06 79.854 60.112 40.127
19 4 8 0.06 81.514 60.525 39.631
20 4 8 0.06 81.073 58.828 39.94
21 5 7 -0.24 13.787 62.742 6.917
22 5 8 0.06 13.842 62.957 5.85
23 5 8 0.06 14.135 63.608 7.481
24 5 8 0.06 14.415 61.882 7.147
25 5 8 0.06 12.755 62.522 7.19
26 6 7 -0.24 97.008 86.632 14.251
27 6 8 0.06 96.845 87.185 15.177
28 6 8 0.06 96.414 87.078 13.453
29 6 8 0.06 96.709 85.594 14.391
30 6 8 0.06 98.064 86.674 13.986
31 7 7 -0.24 88.401 85.489 75.71
32 7 8 0.06 89.117 86.284 75.92
33 7 8 0.06 87.393 85.903 75.694
34 7 8 0.06 88.469 84.725 76.484
35 7 8 0.06 88.627 85.045 74.74
36 8 7 -0.24 61.07 89.499 69.202
37 8 8 0.06 61.084 89.501 70.292
38 8 8 0.06 60.471 88.66 68.848
39 8 8 0.06 62.089 89.403 68.826
40 8 8 0.06 60.637 90.433 68.843
41 9 7 -0.24 87.771 15.853 87.382
42 9 8 0.06 87.504 16.863 87.074
43 9 8 0.06 88.815 15.831 87.695
44 9 8 0.06 87.627 15.168 86.546
45 9 8 0.06 87.136 15.548 88.214
46 10 7 -0.24 61.677 13.364 88.652
47 10 8 0.06 61.793 13.708 87.624
48 10 8 0.06 61.332 14.19 89.274
49 10 8 0.06 62.636 13.004 89.024
50 10 8 0.06 60.948 12.555 88.684
51 11 7 -0.24 65.904 31.855 39.542
52 11 8 0.06 65.59 31.387 40.475
53 11 8 0.06 66.552 32.703 39.762
54 11 8 0.06 65.025 32.2 38.996
55 11 8 0.06 66.446 31.129 38.936
56 12 7 -0.24 74.609 97.995 80.0
57 12 8 0.06 73.662 97.709 79.541
58 12 8 0.06 75.051 98.817 79.437
59 12 8 0.06 75.287 97.142 79.993
60 12 8 0.06 74.432 98.311 81.028
61 13 7 -0.24 46.084 34.193 94.853
62 13 8 0.06 45.351 34.999 94.817
63 13 8 0.06 46.704 34.226 93.958
64 13 8 0.06 45.567 33.235 94.903
65 13 8 0.06 46.712 34.314 95.736
66 14 7 -0.24 56.094 86.444 69.75
67 14 8 0.06 55.995 86.323 70.829
68 14 8 0.06 55.137 86.231 69.272
69 14 8 0.06 56.85 85.754 69.375
70 14 8 0.06 56.392 87.468 69.526
71 15 7 -0.24 13.276 2.422 31.909
72 15 8 0.06 13.555 3.322 31.361
73 15 8 0.06 12.906 1.672 31.21
74 15 8 0.06 12.496 2.663 32.631
75 15 8 0.06 14.148 2.031 32.433
76 16 7 -0.24 17.959 34.268 71.824
77 16 8 0.06 17.67 35.245 72.213
78 16 8 0.06 17.619 34.172 70.793
79 16 8 0.06 17.503 33.486 72.432
80 16 8 0.06 19.044 34.17 71.86
81 17 7 -0.24 60.78 65.338 63.493
82 17 8 0.06 60.176 65.846 64.246
83 17 8 0.06 60.14 64.701 62.883
84 17 8 0.06 61.537 64.729 63.987
85 17 8 0.06 61.267 66.079 62.859
86 18 7 -0.24 4.358 80.244 17.886
87 18 8 0.06 4.177 79.185 18.068
88 18 8 0.06 4.029 80.822 18.75
89 18 8 0.06 3.802 80.56 17.003
90 18 8 0.06 5.423 80.408 17.722
91 19 7 -0.24 34.802 58.017 66.838
92 19 8 0.06 35.814 58.421 66.868
93 19 8 0.06 34.829 56.999 66.447
94 19 8 0.06 34.182 58.638 66.192
95 19 8 0.06 34.384 58.008 67.844
96 20 7 -0.24 90.093 3.689 68.212
97 20 8 0.06 89.835 3.238 67.253
98 20 8 0.06 90.968 3.187 68.625
99 20 8 0.06 89.254 3.584 68.9
100 20 8 0.06 90.314 4.746 68.067
101 21 7 -0.24 52.545 48.034 90.468
102 21 8 0.06 53.364 48.489 89.912
103 21 8 0.06 51.595 48.332 90.025
104 21 8 0.06 52.583 48.366 91.506
105 21 8 0.06 52.64 46.949 90.43
106 22 7 -0.24 66.621 1.409 69.902
107 22 8 0.06 66.265 1.797 68.947
108 22 8 0.06 66.869 0.353 69.795
109 22 8 0.06 65.842 1.526 70.654
110 22 8 0.06 67.509 1.962 70.21
111 23 7 -0.24 13.19 96.389 90.427
112 23 8 0.06 13.913 96.276 91.235
113 23 8 0.06 12.218 96.651 90.845
114 23 8 0.06 13.109 95.451 89.878
115 23 8 0.06 13.52 97.179 89.752
116 24 7 -0.24 54.618 40.302 84.092
117 24 8 0.06 55.377 41.076 83.979
118 24 8 0.06 53.721 40.735 84.537
119 24 8 0.06 54.999 39.512 84.739
120 24 8 0.06 54.374 39.886 83.115
121 25 7 -0.24 6.505 75.151 69.649
122 25 8 0.06 6.761 74.5 68.813
123 25 8 0.06 7.341 75.19 70.348
124 25 8 0.06 5.624 74.759 70.158
125 25 8 0.06 6.294 76.154 69.278
126 26 7 -0.24 2.092 45.003 73.669
127 26 8 0.06 2.938 45.129 74.345
128 26 8 0.06 1.165 45.008 74.243
129 26 8 0.06 2.187 44.055 73.14
130 26 8 0.06 2.078 45.822 72.949
131 27 7 -0.24 79.654 60.104 5.223
132 27 8 0.06 79.668 60.101 4.133
133 27 8 0.06 79.654 61.133 5.583
134 27 8 0.06 80.537 59.587 5.599
135 27 8 0.06 78.757 59.595 5.576
136 28 7 -0.24 94.529 9.493 7.608
137 28 8 0.06 93.632 9.719 7.033
138 28 8 0.06 94.355 8.607 8.22
139 28 8 0.06 94.771 10.338 8.252
140 28 8 0.06 95.359 9.306 6.927
141 29 7 -0.24 92.496 21.516 69.26
142 29 8 0.06 92.458 20.983 70.21
143 29 8 0.06 91.482 21.748 68.933
144 29 8 0.06 92.986 20.893 68.513
145 29 8 0.06 93.058 22.442 69.386
146 30 7 -0.24 45.763 55.19 62.576
147 30 8 0.06 45.726 54.119 62.774
148 30 8 0.06 46.657 55.613 63.036
149 30 8 0.06 44.878 55.668 62.995
150 30 8 0.06 45.793 55.359 61.5
151 31 7 -0.24 32.528 3.495 72.171
152 31 8 0.06 32.39 3.624 73.244
153 31 8 0.06 31.977 4.271 71.638
154 31 8 0.06 32.156 2.515 71.872
155 31 8 0.06 33.588 3.571 71.929
156 32 7 -0.24 52.124 34.567 98.256
157 32 8 0.06 51.959 34.843 97.215
158 32 8 0.06 52.851 35.247 98.701
159 32 8 0.06 52.502 33.546 98.306
160 32 8 0.06 51.183 34.633 98.802
161 33 7 -0.24 84.468 64.275 34.626
162 33 8 0.06 85.5 63.927 34.645
163 33 8 0.06 84.143 64.394 33.592
164 33 8 0.06 84.399 65.233 35.142
165 33 8 0.06 83.829 63.547 35.126
166 34 7 -0.24 7.461 24.545 19.612
167 34 8 0.06 7.439 24.474 20.7
168 34 8 0.06 6.845 25.386 19.292
169 34 8 0.06 7.072 23.624 19.18
170 34 8 0.06 8.487 24.698 19.279
171 35 7 -0.24 69.561 93.599 21.573
172 35 8 0.06 68.846 94.414 21.461
173 35 8 0.06 69.062 92.735 22.012
174 35 8 0.06 70.376 93.917 22.223
175 35 8 0.06 69.96 93.329 20.595
176 36 7 -0.24 23.272 98.272 45.502
177 36 8 0.06 22.698 97.954 46.373
178 36 8 0.06 22.693 98.998 44.931
179 36 8 0.06 23.488 97.407 44.875
180 36 8 0.06 24.206 98.727 45.829
181 37 7 -0.24 8.153 87.159 15.466
182 37 8 0.06 7.708 87.12 16.461
183 37 8 0.06 8.043 88.164 15.058
184 37 8 0.06 7.649 86.445 14.815
185 37 8 0.06 9.211 86.907 15.532
186 38 7 -0.24 59.099 82.003 77.283
187 38 8 0.06 58.165 82.516 77.051
188 38 8 0.06 59.554 82.459 78.163
189 38 8 0.06 59.78 82.088 76.437
190 38 8 0.06 58.896 80.951 77.482
191 39 7 -0.24 12.872 57.269 19.503
192 39 8 0.06 12.103 57.989 19.782
193 39 8 0.06 12.993 57.27 18.419
194 39 8 0.06 12.577 56.274 19.836
195 39 8 0.06 13.816 57.545 19.974
196 40 7 -0.24 64.546 62.074 48.364
197 40 8 0.06 64.947 61.998 47.353
198 40 8 0.06 65.246 61.621 49.067
199 40 8 0.06 63.59 61.551 48.415
200 40 8 0.06 64.4 63.123 48.619
201 41 7 -0.24 83.193 14.536 10.827
202 41 8 0.06 82.586 13.766 11.303
203 41 8 0.06 84.244 14.365 11.06
204 41 8 0.06 82.893 15.516 11.198
205 41 8 0.06 83.048 14.496 9.747
206 42 7 -0.24 55.964 61.813 84.153
207 42 8 0.06 55.87 62.022 83.087
208 42 8 0.06 55.061 62.139 84.668
209 42 8 0.06 56.825 62.349 84.553
210 42 8 0.06 56.102 60.742 84.301
211 43 7 -0.24 50.792 93.482 42.887
212 43 8 0.06 51.17 94.504 42.916
213 43 8 0.06 49.729 93.495 42.648
214 43 8 0.06 50.941 93.012 43.859
215 43 8 0.06 51.329 92.917 42.125
216 44 7 -0.24 76.406 4.802 70.511
217 44 8 0.06 75.702 4.081 70.926
218 44 8 0.06 76.779 4.437 69.554
219 44 8 0.06 77.24 4.934 71.201
220 44 8 0.06 75.902 5.758 70.364
221 45 7 -0.24 12.818 36.672 42.366
222 45 8 0.06 12.675 36.515 41.297
223 45 8 0.06 11.95 37.189 42.776
224 45 8 0.06 13.711 37.276 42.528
225 45 8 0.06 12.936 35.709 42.862
226 46 7 -0.24 98.05 44.802 57.547
227 46 8 0.06 99.0 45.115 57.979
228 46 8 0.06 98.215 44.435 56.534
229 46 8 0.06 97.367 45.651 57.52
230 46 8 0.06 97.618 44.008 58.156
231 47 7 -0.24 30.916 69.948 24.137
232 47 8 0.06 31.072 70.2 25.186
233 47 8 0.06 31.174 70.806 23.516
234 47 8 0.06 29.87 69.686 23.978
235 47 8 0.06 31.548 69.101 23.869
236 48 7 -0.24 80.35 57.94 16.571
237 48 8 0.06 81.031 58.097 17.406
238 48 8 0.06 80.396 58.797 15.898
239 48 8 0.06 79.333 57.827 16.947
240 48 8 0.06 80.639 57.038 16.031
241 49 7 -0.24 22.994 43.361 43.125
242 49 8 0.06 23.742 44.086 43.447
243 49 8 0.06 22.241 43.245 43.906
244 49 8 0.06 23.475 42.402 42.938
245 49 8 0.06 22.517 43.714 42.211
246 50 7 -0.24 2.653 27.796 92.469
247 50 8 0.06 2.057 28.663 92.754
248 50 8 0.06 3.634 27.859 92.94
249 50 8 0.06 2.769 27.775 91.386
250 50 8 0.06 2.15 26.886 92.798
251 51 7 -0.24 96.234 0.84 64.361
252 51 8 0.06 95.837 1.593 65.041
253 51 8 0.06 95.42 0.211 64.001
254 51 8 0.06 96.964 0.224 64.888
255 51 8 0.06 96.716 1.331 63.516
256 52 7 -0.24 25.507 59.28 25.908
257 52 8 0.06 26.267 58.972 26.625
258 52 8 0.06 25.537 58.62 25.041
259 52 8 0.06 25.7 60.305 25.592
260 52 8 0.06 24.523 59.223 26.374
261 53 7 -0.24 66.19 48.213 76.58
262 53 8 0.06 65.744 48.698 77.448
263 53 8 0.06 65.591 47.347 76.3
264 53 8 0.06 67.202 47.892 76.823
265 53 8 0.06 66.222 48.917 75.748
266 54 7 -0.24 81.274 71.479 35.887
267 54 8 0.06 81.418 71.836 34.867
268 54 8 0.06 81.08 72.327 36.544
269 54 8 0.06 82.172 70.959 36.219
270 54 8 0.06 80.426 70.794 35.916
271 55 7 -0.24 81.961 36.577 27.123
272 55 8 0.06 81.681 36.118 28.071
273 55 8 0.06 81.137 36.48 26.416
274 55 8 0.06 82.843 36.076 26.724
275 55 8 0.06 82.183 37.632 27.282
276 56 7 -0.24 93.759 6.973 87.263
277 56 8 0.06 93.546 6.054 86.718
278 56 8 0.06 92.853 7.575 87.329
279 56 8 0.06 94.532 7.535 86.739
280 56 8 0.06 94.106 6.727 88.267
281 57 7 -0.24 1.703 3.632 95.57
282 57 8 0.06 1.465 4.082 96.534
283 57 8 0.06 2.186 2.668 95.729
284 57 8 0.06 2.375 4.29 95.018
285 57 8 0.06 0.785 3.49 94.999
286 58 7 -0.24 38.044 68.951 52.25
287 58 8 0.06 37.999 68.891 53.337
288 58 8 0.06 39.023 69.324 51.947
289 58 8 0.06 37.269 69.63 51.892
290 58 8 0.06 37.885 67.961 51.824
291 59 7 -0.24 87.323 93.464 31.903
292 59 8 0.06 87.88 93.679 32.815
293 59 8 0.06 87.414 92.404 31.664
294 59 8 0.06 87.728 94.058 31.083
295 59 8 0.06 86.273 93.715 32.051
296 60 7 -0.24 22.258 25.832 51.529
297 60 8 0.06 22.357 25.857 52.614
298 60 8 0.06 23.246 25.892 51.073
299 60 8 0.06 21.654 26.678 51.2
300 60 8 0.06 21.775 24.902 51.229
301 61 7 -0.24 90.344 32.148 20.196
302 61 8 0.06 90.298 33.218 20.404
303 61 8 0.06 89.552 31.638 20.745
304 61 8 0.06 91.313 31.759 20.509
305 61 8 0.06 90.212 31.98 19.128
306 62 7 -0.24 9.449 17.446 95.12
307 62 8 0.06 10.21 16.706 94.875
308 62 8 0.06 9.307 17.477 96.201
309 62 8 0.06 8.51 17.176 94.638
310 62 8 0.06 9.769 18.427 94.768
311 63 7 -0.24 57.814 64.744 72.091
312 63 8 0.06 57.444 64.267 71.183
313 63 8 0.06 58.665 65.38 71.845
314 63 8 0.06 58.125 63.979 72.802
315 63 8 0.06 57.022 65.35 72.531
316 64 7 -0.24 62.706 12.173 43.893
317 64 8 0.06 63.06 13.065 43.377
318 64 8 0.06 63.559 11.604 44.262
319 64 8 0.06 62.13 11.558 43.201
320 64 8 0.06 62.073 12.465 44.731
321 65 7 -0.24 12.586 95.512 96.135
322 65 8 0.06 12.284 96.111 96.994
323 65 8 0.06 12.304 96.028 95.216
324 65 8 0.06 12.09 94.543 96.175
325 65 8 0.06 13.666 95.369 96.154
326 66 7 -0.24 35.799 35.166 14.584
327 66 8 0.06 36.702 34.576 14.738
328 66 8 0.06 35.546 35.173 13.523
329 66 8 0.06 35.97 36.187 14.924
330 66 8 0.06 34.977 34.727 15.151
331 67 7 -0.24 29.269 52.096 85.976
332 67 8 0.06 29.488 52.94 85.322
333 67 8 0.06 28.729 51.333 85.416
334 67 8 0.06 28.658 52.435 86.813
335 67 8 0.06 30.203 51.678 86.354
336 68 7 -0.24 44.82 23.53 3.734
337 68 8 0.06 43.865 23.307 3.257
338 68 8 0.06 44.649 23.818 4.772
339 68 8 0.06 45.308 24.348 3.205
340 68 8 0.06 45.456 22.646 3.702
341 69 7 -0.24 84.389 58.704 57.599
342 69 8 0.06 84.258 58.847 56.526
343 69 8 0.06 84.196 59.644 58.117
344 69 8 0.06 85.41 58.381 57.8
345 69 8 0.06 83.692 57.945 57.952
346 70 7 -0.24 45.933 37.174 34.547
347 70 8 0.06 46.782 36.701 34.053
348 70 8 0.06 45.954 38.247 34.356
349 70 8 0.06 45.992 36.994 35.62
350 70 8 0.06 45.006 36.752 34.157
351 71 7 -0.24 67.585 50.581 33.384
352 71 8 0.06 67.421 50.859 34.425
353 71 8 0.06 67.851 51.469 32.809
354 71 8 0.06 66.673 50.144 32.977
355 71 8 0.06 68.394 49.854 33.326
356 72 7 -0.24 94.974 54.397 87.213
357 72 8 0.06 94.86 55.12 86.406
358 72 8 0.06 95.968 53.953 87.164
359 72 8 0.06 94.221 53.615 87.11
360 72 8 0.06 94.847 54.899 88.172
361 73 7 -0.24 19.476 80.637 21.317
362 73 8 0.06 18.948 79.781 21.736
363 73 8 0.06 19.146 81.547 21.817
364 73 8 0.06 19.262 80.71 20.251
365 73 8 0.06 20.549 80.509 21.464
366 74 7 -0.24 75.131 66.429 45.243
367 74 8 0.06 74.969 66.206 46.298
368 74 8 0.06 75.437 67.469 45.135
369 74 8 0.06 74.206 66.262 44.69
370 74 8 0.06 75.911 65.777 44.85
371 75 7 -0.24 4.528 64.599 66.855
372 75 8 0.06 5.22 63.847 67.234
373 75 8 0.06 4.726 65.554 67.342
374 75 8 0.06 3.504 64.288 67.064
375 75 8 0.06 4.662 64.705 65.778
376 76 7 -0.24 66.882 18.88 6.937
377 76 8 0.06 66.408 17.91 6.789
378 76 8 0.06 66.489 19.591 6.21
379 76 8 0.06 67.959 18.781 6.803
380 76 8 0.06 66.672 19.237 7.945
381 77 7 -0.24 56.344 44.915 40.42
382 77 8 0.06 55.558 44.163 40.361
383 77 8 0.06 56.194 45.659 39.637
384 77 8 0.06 57.315 44.437 40.286
385 77 8 0.06 56.31 45.401 41.395
386 78 7 -0.24 12.984 85.766 67.919
387 78 8 0.06 12.356 86.038 67.071
388 78 8 0.06 12.359 85.393 68.729
389 78 8 0.06 13.535 86.644 68.258
390 78 8 0.06 13.688 84.991 67.615
391 79 7 -0.24 93.243 72.482 39.451
392 79 8 0.06 93.161 72.583 40.534
393 79 8 0.06 92.687 71.602 39.126
394 79 8 0.06 94.291 72.373 39.175
395 79 8 0.06 92.83 73.37 38.972
396 80 7 -0.24 5.937 39.317 89.946
397 80 8 0.06 4.867 39.129 90.038
398 80 8 0.06 6.11 40.05 89.158
399 80 8 0.06 6.449 38.388 89.697
400 80 8 0.06 6.321 39.701 90.891
401 81 7 -0.24 64.735 34.417 7.928
402 81 8 0.06 64.34 34.233 6.929
403 81 8 0.06 65.0 33.468 8.394
404 81 8 0.06 63.979 34.92 8.53
405 81 8 0.06 65.622 35.048 7.857
406 82 7 -0.24 84.011 52.525 92.122
407 82 8 0.06 83.268 53.13 92.641
408 82 8 0.06 84.874 52.374 92.772
409 82 8 0.06 84.326 53.038 91.214
410 82 8 0.06 83.577 51.559 91.863
411 83 7 -0.24 87.258 97.449 96.95
412 83 8 0.06 87.248 97.714 98.007
413 83 8 0.06 88.211 96.982 96.702
414 83 8 0.06 87.126 98.349 96.349
415 83 8 0.06 86.446 96.752 96.743
416 84 7 -0.24 95.703 81.718 30.687
417 84 8 0.06 95.621 81.693 31.773
418 84 8 0.06 96.52 82.379 30.4
419 84 8 0.06 94.77 82.087 30.261
420 84 8 0.06 95.9 80.713 30.314
421 85 7 -0.24 32.887 14.394 98.458
422 85 8 0.06 33.677 14.914 99.0
423 85 8 0.06 33.047 14.509 97.386
424 85 8 0.06 31.921 14.819 98.729
425 85 8 0.06 32.905 13.335 98.717
426 86 7 -0.24 41.649 66.642 25.259
427 86 8 0.06 41.243 65.979 24.495
428 86 8 0.06 41.472 66.211 26.245
429 86 8 0.06 41.159 67.613 25.194
430 86 8 0.06 42.72 66.763 25.102
431 87 7 -0.24 29.466 46.093 19.287
432 87 8 0.06 29.446 45.772 20.328
433 87 8 0.06 30.053 47.008 19.201
434 87 8 0.06 28.448 46.281 18.945
435 87 8 0.06 29.918 45.313 18.675
436 88 7 -0.24 65.198 86.399 25.086
437 88 8 0.06 65.485 85.8 24.222
438 88 8 0.06 64.557 87.22 24.763
439 88 8 0.06 66.093 86.802 25.561
440 88 8 0.06 64.659 85.774 25.798
441 89 7 -0.24 59.22 10.664 29.928
442 89 8 0.06 59.129 10.284 30.945
443 89 8 0.06 58.455 11.422 29.754
444 89 8 0.06 59.088 9.845 29.221
445 89 8 0.06 60.207 11.106 29.791
446 90 7 -0.24 42.615 34.211 55.699
447 90 8 0.06 42.509 34.638 56.696
448 90 8 0.06 42.226 34.912 54.96
449 90 8 0.06 42.057 33.276 55.643
450 90 8 0.06 43.669 34.018 55.497
451 91 7 -0.24 86.614 50.284 16.838
452 91 8 0.06 86.943 51.311 16.999
453 91 8 0.06 86.468 49.794 17.801
454 91 8 0.06 87.369 49.746 16.266
455 91 8 0.06 85.674 50.288 16.286
456 92 7 -0.24 61.878 57.27 97.32
457 92 8 0.06 62.879 57.684 97.442
458 92 8 0.06 61.795 56.346 97.893
459 92 8 0.06 61.697 57.061 96.266
460 92 8 0.06 61.142 57.989 97.68
461 93 7 -0.24 25.122 9.705 81.21
462 93 8 0.06 24.803 9.394 80.216
463 93 8 0.06 25.421 10.753 81.184
464 93 8 0.06 25.967 9.094 81.528
465 93 8 0.06 24.298 9.579 81.912
466 94 7 -0.24 97.613 27.312 67.246
467 94 8 0.06 97.632 26.312 67.68
468 94 8 0.06 97.127 27.276 66.271
469 94 8 0.06 98.634 27.676 67.13
470 94 8 0.06 97.061 27.983 67.904
471 95 7 -0.24 65.265 61.018 35.482
472 95 8 0.06 65.152 60.065 35.999
473 95 8 0.06 64.798 60.955 34.499
474 95 8 0.06 66.324 61.246 35.368
475 95 8 0.06 64.784 61.805 36.063
476 96 7 -0.24 3.692 71.024 44.275
477 96 8 0.06 2.631 70.8 44.384
478 96 8 0.06 4.042 71.563 45.156
479 96 8 0.06 3.844 71.64 43.388
480 96 8 0.06 4.251 70.094 44.172
481 97 7 -0.24 86.405 11.303 93.735
482 97 8 0.06 85.742 12.122 93.455
483 97 8 0.06 87.254 11.699 94.293
484 97 8 0.06 86.762 10.801 92.836
485 97 8 0.06 85.861 10.593 94.357
486 98 7 -0.24 9.28 53.851 63.562
487 98 8 0.06 8.382 53.27 63.772
488 98 8 0.06 9.884 53.33 62.82
489 98 8 0.06 9.855 53.974 64.479
490 98 8 0.06 8.996 54.831 63.178
491 99 7 -0.24 69.709 56.923 27.043
492 99 8 0.06 70.674 57.389 26.845
493 99 8 0.06 68.948 57.697 27.153
494 99 8 0.06 69.769 56.339 27.962
495 99 8 0.06 69.444 56.269 26.213
496 100 7 -0.24 54.609 27.543 80.749
497 100 8 0.06 55.395 27.614 79.997
498 100 8 0.06 54.683 28.389 81.432
499 100 8 0.06 54.723 26.614 81.307
500 100 8 0.06 53.635 27.555 80.259
501 101 7 -0.24 50.853 33.105 38.577
502 101 8 0.06 50.979 32.605 37.617
503 101 8 0.06 49.812 33.031 38.891
504 101 8 0.06 51.13 34.155 38.479
505 101 8 0.06 51.492 32.629 39.321
506 102 7 -0.24 67.94 57.336 31.912
507 102 8 0.06 67.499 57.183 30.927
508 102 8 0.06 69.011 57.138 31.865
509 102 8 0.06 67.476 56.657 32.627
510 102 8 0.06 67.774 58.366 32.228
511 103 7 -0.24 11.071 39.434 20.534
512 103 8 0.06 10.202 38.838 20.814
513 103 8 0.06 11.812 39.395 21.333
514 103 8 0.06 10.765 40.467 20.372
515 103 8 0.06 11.504 39.035 19.617
516 104 7 -0.24 74.289 93.499 49.444
517 104 8 0.06 74.109 93.309 48.386
518 104 8 0.06 74.333 92.55 49.98
519 104 8 0.06 73.479 94.107 49.847
520 104 8 0.06 75.235 94.027 49.563
521 105 7 -0.24 17.361 0.968 37.106
522 105 8 0.06 17.683 0.684 36.104
523 105 8 0.06 16.314 0.698 37.241
524 105 8 0.06 17.478 2.045 37.233
525 105 8 0.06 17.97 0.447 37.844
526 106 7 -0.24 16.936 2.577 11.55
527 106 8 0.06 17.387 2.667 12.538
528 106 8 0.06 15.859 2.726 11.628
529 106 8 0.06 17.137 1.584 11.148
530 106 8 0.06 17.36 3.33 10.886
531 107 7 -0.24 1.391 78.049 15.246
532 107 8 0.06 1.255 78.204 16.316
533 107 8 0.06 2.452 77.921 15.03
534 107 8 0.06 1.01 78.913 14.702
535 107 8 0.06 0.847 77.156 14.937
536 108 7 -0.24 10.462 54.426 9.583
537 108 8 0.06 10.242 54.919 8.636
538 108 8 0.06 9.711 54.708 10.322
539 108 8 0.06 11.448 54.734 9.932
540 108 8 0.06 10.447 53.346 9.442
541 109 7 -0.24 81.803 47.601 47.45
542 109 8 0.06 81.957 47.511 48.525
543 109 8 0.06 81.448 48.605 47.216
544 109 8 0.06 81.062 46.869 47.128
545 109 8 0.06 82.744 47.417 46.932
546 110 7 -0.24 89.851 94.704 57.486
547 110 8 0.06 89.909 94.711 58.574
548 110 8 0.06 90.668 94.105 57.083
549 110 8 0.06 89.929 95.725 57.112
550 110 8 0.06 88.898 94.275 57.176
551 111 7 -0.24 74.277 76.54 72.835
552 111 8 0.06 73.192 76.483 72.752
553 111 8 0.06 74.684 77.024 71.947
554 111 8 0.06 74.688 75.534 72.921
555 111 8 0.06 74.544 77.119 73.719
556 112 7 -0.24 50.839 95.673 75.106
557 112 8 0.06 49.995 95.846 74.439
558 112 8 0.06 51.581 96.458 74.965
559 112 8 0.06 51.286 94.704 74.881
560 112 8 0.06 50.492 95.682 76.14
561 113 7 -0.24 5.141 63.78 28.935
562 113 8 0.06 4.11 64.058 28.716
563 113 8 0.06 5.167 62.767 29.337
564 113 8 0.06 5.556 64.472 29.667
565 113 8 0.06 5.731 63.823 28.019
566 114 7 -0.24 17.022 46.891 68.213
567 114 8 0.06 17.03 45.833 68.472
568 114 8 0.06 17.919 47.369 68.609
569 114 8 0.06 16.139 47.363 68.643
570 114 8 0.06 17.001 47.0 67.128
571 115 7 -0.24 6.655 61.234 75.821
572 115 8 0.06 7.442 61.382 76.56
573 115 8 0.06 5.801 60.748 76.293
574 115 8 0.06 7.029 60.608 75.011
575 115 8 0.06 6.347 62.2 75.42
576 116 7 -0.24 49.37 59.558 25.376
577 116 8 0.06 50.045 60.348 25.703
578 116 8 0.06 49.04 58.98 26.24
579 116 8 0.06 49.89 58.902 24.677
580 116 8 0.06 48.505 60.001 24.883
581 117 7 -0.24 55.128 71.406 0.867
582 117 8 0.06 55.52 70.615 0.227
583 117 8 0.06 54.949 72.3 0.27
584 117 8 0.06 55.851 71.63 1.651
585 117 8 0.06 54.193 71.077 1.319
586 118 7 -0.24 25.528 93.67 82.034
587 118 8 0.06 26.329 93.374 82.712
588 118 8 0.06 25.957 94.05 81.108
589 118 8 0.06 24.925 94.448 82.503
590 118 8 0.06 24.9 92.806 81.817
591 119 7 -0.24 19.032 60.402 93.432
592 119 8 0.06 18.216 60.613 94.124
593 119 8 0.06 19.075 59.331 93.237
594 119 8 0.06 19.974 60.731 93.87
595 119 8 0.06 18.861 60.935 92.496
596 120 7 -0.24 66.409 30.105 1.465
597 120 8 0.06 66.226 30.827 2.261
598 120 8 0.06 65.489 29.945 0.902
599 120 8 0.06 66.738 29.161 1.9
600 120 8 0.06 67.182 30.487 0.799
601 121 7 -0.24 85.001 37.08 66.702
602 121 8 0.06 85.5 36.717 65.803
603 121 8 0.06 85.024 36.305 67.468
604 121 8 0.06 83.966 37.328 66.467
605 121 8 0.06 85.514 37.969 67.068
606 122 7 -0.24 33.633 37.621 42.081
607 122 8 0.06 33.438 37.81 41.025
608 122 8 0.06 33.176 38.407 42.681
609 122 8 0.06 34.709 37.61 42.254
610 122 8 0.06 33.21 36.656 42.361
611 123 7 -0.24 47.512 62.749 92.381
612 123 8 0.06 47.288 63.448 91.576
613 123 8 0.06 46.614 62.577 92.974
614 123 8 0.06 48.293 63.167 93.018
615 123 8 0.06 47.856 61.806 91.958
616 124 7 -0.24 70.195 55.529 87.465
617 124 8 0.06 70.097 54.449 87.361
618 124 8 0.06 70.902 55.754 88.264
619 124 8 0.06 69.223 55.96 87.708
620 124 8 0.06 70.556 55.953 86.528
621 125 7 -0.24 68.277 41.934 39.044
622 125 8 0.06 68.377 40.861 39.202
623 125 8 0.06 67.962 42.122 38.017
624 125 8 0.06 69.237 42.418 39.224
625 125 8 0.06 67.533 42.336 39.732
626 126 7 -0.24 27.486 86.05 90.423
627 126 8 0.06 26.971 85.172 90.034
628 126 8 0.06 26.754 86.818 90.675
629 126 8 0.06 28.17 86.435 89.666
630 126 8 0.06 28.048 85.776 91.315
631 127 7 -0.24 24.689 56.635 47.351
632 127 8 0.06 25.22 55.694 47.206
633 127 8 0.06 23.614 56.448 47.348
634 127 8 0.06 24.94 57.322 46.543
635 127 8 0.06 24.98 57.073 48.305
636 128 7 -0.24 17.217 34.012 62.48
637 128 8 0.06 16.331 34.1 63.108
638 128 8 0.06 18.108 34.008 63.108
639 128 8 0.06 17.26 34.856 61.792
640 128 8 0.06 17.168 33.082 61.912
641 129 7 -0.24 60.915 80.253 20.439
642 129 8 0.06 59.874 79.996 20.637
643 129 8 0.06 61.494 80.155 21.357
644 129 8 0.06 60.973 81.28 20.079
645 129 8 0.06 61.317 79.58 19.681
646 130 7 -0.24 52.189 53.35 75.176
647 130 8 0.06 53.046 53.034 74.581
648 130 8 0.06 51.949 52.578 75.907
649 130 8 0.06 51.332 53.511 74.522
650 130 8 0.06 52.429 54.279 75.694
651 131 7 -0.24 44.404 33.63 23.97
652 131 8 0.06 44.465 33.656 22.882
653 131 8 0.06 45.16 34.293 24.391
654 131 8 0.06 44.576 32.613 24.32
655 131 8 0.06 43.414 33.961 24.285
656 132 7 -0.24 40.881 17.35 37.063
657 132 8 0.06 41.197 18.319 37.45
658 132 8 0.06 41.04 16.585 37.824
659 132 8 0.06 41.464 17.106 36.175
660 132 8 0.06 39.823 17.39 36.803
661 133 7 -0.24 81.072 41.431 51.772
662 133 8 0.06 81.446 41.383 50.749
663 133 8 0.06 81.17 42.451 52.147
664 133 8 0.06 81.65 40.755 52.402
665 133 8 0.06 80.023 41.137 51.789
666 134 7 -0.24 94.493 1.073 58.508
667 134 8 0.06 94.41 0.04 58.169
668 134 8 0.06 94.265 1.746 57.681
669 134 8 0.06 95.508 1.259 58.859
670 134 8 0.06 93.789 1.246 59.322
671 135 7 -0.24 15.026 33.534 59.36
672 135 8 0.06 15.685 32.799 58.898
673 135 8 0.06 14.782 34.31 58.635
674 135 8 0.06 15.527 33.983 60.218
675 135 8 0.06 14.11 33.044 59.69
676 136 7 -0.24 21.939 88.362 23.172
677 136 8 0.06 21.862 88.391 24.259
678 136 8 0.06 22.766 87.714 22.883
679 136 8 0.06 22.116 89.369 22.793
680 136 8 0.06 21.01 87.975 22.753
681 137 7 -0.24 28.519 41.408 62.255
682 137 8 0.06 28.336 42.253 62.919
683 137 8 0.06 29.086 40.644 62.788
684 137 8 0.06 29.088 41.744 61.388
685 137 8 0.06 27.567 40.991 61.926
686 138 7 -0.24 7.28 35.725 72.945
687 138 8 0.06 7.301 35.727 71.855
688 138 8 0.06 7.268 34.696 73.306
689 138 8 0.06 6.386 36.242 73.293
690 138 8 0.06 8.166 36.233 73.326
691 139 7 -0.24 59.821 63.19 65.576
692 139 8 0.06 59.822 63.095 64.49
693 139 8 0.06 59.094 63.945 65.874
694 139 8 0.06 60.814 63.486 65.916
695 139 8 0.06 59.555 62.232 66.024
696 140 7 -0.24 92.981 13.264 16.141
697 140 8 0.06 93.762 13.99 16.366
698 140 8 0.06 93.425 12.392 15.66
699 140 8 0.06 92.248 13.715 15.473
700 140 8 0.06 92.492 12.959 17.066
701 141 7 -0.24 27.867 73.111 18.222
702 141 8 0.06 28.303 72.983 17.232
703 141 8 0.06 28.178 72.288 18.866
704 141 8 0.06 26.78 73.118 18.142
705 141 8 0.06 28.206 74.055 18.649
706 142 7 -0.24 17.695 94.959 39.507
707 142 8 0.06 17.288 95.966 39.409
708 142 8 0.06 18.631 94.999 40.064
709 142 8 0.06 17.879 94.545 38.515
710 142 8 0.06 16.982 94.329 40.038
711 143 7 -0.24 96.306 76.613 80.566
712 143 8 0.06 95.656 77.486 80.504
713 143 8 0.06 96.12 75.961 79.712
714 143 8 0.06 96.098 76.071 81.489
715 143 8 0.06 97.347 76.933 80.559
716 144 7 -0.24 31.649 40.543 5.605
717 144 8 0.06 31.527 41.585 5.31
718 144 8 0.06 31.813 40.487 6.682
719 144 8 0.06 32.506 40.116 5.085
720 144 8 0.06 30.75 39.984 5.345
721 145 7 -0.24 7.087 41.869 14.183
722 145 8 0.06 6.224 41.702 13.538
723 145 8 0.06 7.89 41.188 13.899
724 145 8 0.06 6.805 41.687 15.221
725 145 8 0.06 7.427 42.899 14.075
726 146 7 -0.24 11.059 59.507 12.018
727 146 8 0.06 11.1 59.684 13.093
728 146 8 0.06 11.512 58.541 11.792
729 146 8 0.06 11.605 60.295 11.499
730 146 8 0.06 10.02 59.507 11.689
731 147 7 -0.24 63.707 86.591 80.031
732 147 8 0.06 63.846 85.841 79.252
733 147 8 0.06 64.654 86.762 80.543
734 147 8 0.06 62.965 86.237 80.747
735 147 8 0.06 63.363 87.522 79.581
736 148 7 -0.24 91.333 17.261 3.427
737 148 8 0.06 91.089 16.199 3.457
738 148 8 0.06 90.573 17.823 3.972
739 148 8 0.06 91.362 17.598 2.391
740 148 8 0.06 92.306 17.423 3.89
741 149 7 -0.24 34.998 90.953 67.08
742 149 8 0.06 34.927 90.588 66.055
743 149 8 0.06 34.453 90.281 67.743
744 149 8 0.06 34.567 91.953 67.14
745 149 8 0.06 36.045 90.991 67.38
746 150 7 -0.24 67.437 78.785 20.846
747 150 8 0.06 67.47 78.792 21.936
748 150 8 0.06 67.085 77.813 20.5
749 150 8 0.06 68.435 78.973 20.451
750 150 8 0.06 66.756 79.562 20.499
751 151 7 -0.24 80.046 80.577 55.325
752 151 8 0.06 80.932 81.2 55.2
753 151 8 0.06 79.697 80.241 54.348
754 151 8 0.06 79.261 81.155 55.813
755 151 8 0.06 80.295 79.711 55.94
756 152 7 -0.24 24.541 60.043 11.587
757 152 8 0.06 23.897 60.63 10.933
758 152 8 0.06 23.978 59.2 11.989
759 152 8 0.06 24.893 60.669 12.407
760 152 8 0.06 25.394 59.673 11.019
761 153 7 -0.24 30.224 8.994 13.892
762 153 8 0.06 30.452 8.972 14.958
763 153 8 0.06 30.788 8.211 13.385
764 153 8 0.06 30.5 9.965 13.482
765 153 8 0.06 29.157 8.827 13.746
766 154 7 -0.24 22.908 34.139 66.997
767 154 8 0.06 23.185 34.655 66.078
768 154 8 0.06 22.905 34.848 67.826
769 154 8 0.06 23.627 33.346 67.2
770 154 8 0.06 21.913 33.707 66.885
771 155 7 -0.24 29.333 66.837 59.948
772 155 8 0.06 29.525 66.49 58.932
773 155 8 0.06 29.742 67.84 60.072
774 155 8 0.06 29.807 66.16 60.658
775 155 8 0.06 28.258 66.857 60.128
776 156 7 -0.24 95.169 89.329 72.79
777 156 8 0.06 94.863 89.205 71.752
778 156 8 0.06 95.673 88.425 73.131
779 156 8 0.06 94.289 89.51 73.408
780 156 8 0.06 95.849 90.177 72.87
781 157 7 -0.24 49.584 74.778 7.379
782 157 8 0.06 48.675 75.315 7.109
783 157 8 0.06 49.837 74.99 8.418
784 157 8 0.06 50.401 75.1 6.733
785 157 8 0.06 49.423 73.707 7.255
786 158 7 -0.24 60.602 9.089 42.227
787 158 8 0.06 60.81 8.021 42.165
788 158 8 0.06 59.531 9.243 42.363
789 158 8 0.06 60.926 9.576 41.308
790 158 8 0.06 61.141 9.515 43.074
791 159 7 -0.24 20.287 39.726 35.071
792 159 8 0.06 20.428 38.74 34.629
793 159 8 0.06 20.75 39.752 36.057
794 159 8 0.06 19.221 39.934 35.164
795 159 8 0.06 20.749 40.479 34.432
796 160 7 -0.24 65.891 4.524 49.548
797 160 8 0.06 66.514 4.385 48.664
798 160 8 0.06 65.457 3.567 49.839
799 160 8 0.06 65.093 5.231 49.321
800 160 8 0.06 66.499 4.912 50.365
801 161 7 -0.24 47.322 40.712 23.947
802 161 8 0.06 46.478 40.621 24.631
803 161 8 0.06 47.993 39.864 24.082
804 161 8 0.06 47.859 41.638 24.154
805 161 8 0.06 46.957 40.727 22.92
806 162 7 -0.24 30.141 86.014 39.028
807 162 8 0.06 30.507 86.069 38.003
808 162 8 0.06 29.052 86.062 39.028
809 162 8 0.06 30.541 86.85 39.602
810 162 8 0.06 30.464 85.076 39.479
811 163 7 -0.24 64.425 37.083 22.25
812 163 8 0.06 63.549 36.464 22.443
813 163 8 0.06 64.164 38.133 22.382
814 163 8 0.06 64.768 36.92 21.228
815 163 8 0.06 65.22 36.815 22.947
816 164 7 -0.24 59.99 29.655 74.723
817 164 8 0.06 59.984 29.687 75.812
818 164 8 0.06 60.274 30.633 74.332
819 164 8 0.06 58.995 29.394 74.362
820 164 8 0.06 60.707 28.907 74.385
821 165 7 -0.24 27.932 57.303 3.094
822 165 8 0.06 27.938 57.304 2.004
823 165 8 0.06 28.547 58.124 3.461
824 165 8 0.06 28.333 56.357 3.458
825 165 8 0.06 26.91 57.426 3.452
826 166 7 -0.24 30.827 96.039 75.702
827 166 8 0.06 30.811 96.027 74.612
828 166 8 0.06 29.849 96.343 76.075
829 166 8 0.06 31.583 96.745 76.046
830 166 8 0.06 31.064 95.042 76.072
831 167 7 -0.24 97.335 21.977 82.306
832 167 8 0.06 96.947 22.891 81.855
833 167 8 0.06 98.423 21.976 82.247