LAMMPS data file via write_data, version 29 Sep 2021, timestep = 1000

10 atoms
61 atom types
9 bonds
24 bond types
10 angles
50 angle types
5 dihedrals
29 dihedral types
2 impropers
2 improper types

-25 25 xlo xhi
-25 25 ylo yhi
-25 25 zlo zhi

Masses

1 1.008
2 15.999
3 15.999
4 15.999
5 15.999
6 15.999
7 15.999
8 28.085
9 26.982
10 26.982
11 24.305
12 24.305
13 40.078
14 40.078
15 55.845
16 6.94
17 22.99
18 39.098
19 132.91
20 40.078
21 137.33
22 35.45
23 15.9994
24 1.008
25 12.011
26 12.011
27 12.011
28 12.011
29 12.011
30 1.008
31 12.011
32 12.011
33 12.011
34 1.008
35 12.011
36 1.008
37 12.011
38 12.011
39 15.9994
40 14.007
41 14.007
42 14.007
43 1.008
44 1.008
45 12.011
46 15.9994
47 15.9994
48 1.008
49 12.011
50 15.9994
51 12.011
52 12.011
53 12.011
54 12.011
55 12.011
56 14.007
57 12.011
58 12.011
59 12.011
60 12.011
61 12.011

Pair Coeffs # lj/cut/coul/long

1 0 0
2 0.1554 3.16554
3 0.1554 3.16554
4 0.1554 3.16554
5 0.1554 3.16554
6 0.1554 3.16554
7 0.1554 3.16554
8 1.8405e-06 3.30203
9 1.3298e-06 4.27124
10 1.8405e-06 3.30203
11 9.0298e-06 5.26432
12 9.0298e-06 5.26432
13 5.0298e-06 5.56669
14 5.0298e-06 5.5617
15 9.0298e-06 4.90618
16 9.0298e-06 4.21012
17 0.1301 2.35001
18 0.1 3.33401
19 0.1 3.83104
20 0.1 2.87199
21 0.047 3.81661
22 0.1001 4.39997
23 0.1554 3.16557
24 0 0
25 0.066 3.5
26 0.066 3.5
27 0.066 3.5
28 0.066 3.5
29 0.066 3.5
30 0.03 2.5
31 0.076 3.55
32 0.076 3.55
33 0.076 3.55
34 0.03 2.42
35 0.07 3.55
36 0.03 2.42
37 0.07 3.55
38 0.105 3.75
39 0.21 2.96
40 0.17 3.25
41 0.17 3.25
42 0.17 3.25
43 0 0
44 0 0
45 0.105 3.75
46 0.21 2.96
47 0.17 3
48 0 0
49 0.105 3.75
50 0.21 2.96
51 0.066 3.5
52 0.066 3.5
53 0.066 3.5
54 0.066 3.5
55 0.076 3.55
56 0.17 3.25
57 0.066 3.5
58 0.066 3.5
59 0.066 3.5
60 0.066 3.5
61 0.03 2.5

Bond Coeffs # harmonic

1 554.135 1
2 554.135 1
3 554.135 1
4 554.135 1
5 268 1.529
6 340 1.09
7 317 1.51
8 340 1.08
9 549 1.34
10 469 1.4
11 367 1.08
12 317 1.51
13 427 1.433
14 570 1.229
15 317 1.522
16 410 1.444
17 400 1.49
18 490 1.335
19 434 1.01
20 337 1.449
21 450 1.364
22 656 1.25
23 553 0.945
24 367 1.471

Angle Coeffs # harmonic

1 30 109.47
2 30 109.47
3 30 109.47
4 30 109.47
5 30 109.47
6 30 109.47
7 30 109.47
8 30 109.47
9 30 109.47
10 45.7696 109.47
11 58.35 112.7
12 33 107.8
13 37.5 110.7
14 35 109.5
15 63 112.4
16 70 124
17 35 120
18 35 109.5
19 63 114
20 85 119.7
21 63 120
22 35 120
23 63 111.1
24 85 120.7
25 85 120
26 80 120.4
27 80 125.3
28 80 120.4
29 80 122.9
30 70 116.6
31 70 115.5
32 70 115.5
33 35 119.8
34 35 120
35 50 121.9
36 50 118
37 38 118.4
38 70 108
39 80 121
40 35 113
41 70 117
42 70 117
43 70 117
44 80 126
45 70 117
46 70 117
47 70 117
48 50 113
49 80 111.2
50 35 109.5

Dihedral Coeffs # opls

1 1.3 -0.05 0.2 0
2 0 0 0.3 0
3 0 0 0.3 0
4 0 0 0.366 0
5 0 0 0.462 0
6 0.205 -0.531 0 0
7 0 0 -0.372 0
8 0 14 0 0
9 0 14 0 0
10 0.205 -0.531 0 0
11 0 0 -0.372 0
12 1.241 3.353 -0.286 0
13 0 7.25 0 0
14 0 7.25 0 0
15 0 7.25 0 0
16 -2.06 -0.313 0.315 0
17 -1.697 -0.456 0.585 0
18 -4.344 -1.714 0 0
19 0 0 0 0
20 0 0.546 0 0
21 2.5 6 0 0
22 0 2.1 0 0
23 0 4.9 0 0
24 0 6.089 0 0
25 0 5 0 0
26 2.732 -0.229 0.485 0
27 0 0 0.384 0
28 1.438 -0.124 0.264 0
29 0 0 0.302 0

Improper Coeffs # harmonic

1 15 0
2 1 0

Atoms # full

9 1 43 0.38 -8.730663507179813 -0.7721348407451419 -0.04680828284842962 0 0 0
6 1 34 0.115 -12.243807433981956 -0.15832799077776968 0.6081650545759082 0 0 0
5 1 40 -0.76 -9.617729704330513 -0.3582121901291965 0.19890913963739676 0 0 0
10 1 43 0.38 -10.285274089143085 -0.8215177497563054 0.788822089258831 0 0 0
1 1 33 -0.23 -12.38881619329994 0.689917679435015 -0.060068092335490236 0 0 0
7 1 34 0.115 -12.481219859046613 0.32702540145247855 -1.1048594009886086 0 0 0
3 1 38 0.5 -9.899046293644243 0.9357157207396548 -0.27480612027485896 0 0 0
4 1 39 -0.5 -9.069811812731702 1.514299702074335 -0.9895966132942261 0 0 0
2 1 32 -0.115 -11.180792326245522 1.6272894303368575 0.08034963351200897 0 0 0
8 1 34 0.115 -11.151371215411164 1.929678926352144 1.1433126386022925 0 0 0

Velocities

9 0.02846708287202299 0.023655216599528166 0.007719135585993151
6 0.0017973282909994662 0.02195337014760778 -0.0012580988639401378
5 -0.0024323947087684537 0.00180052930994116 0.004198842920610189
10 -0.023355261434779825 0.018551648634665952 0.014804498070680773
1 0.0022391967851180675 0.00889354339522376 -0.0015094094487699185
7 -0.029372805066209158 -0.003347592360384173 -0.002445104188619769
3 -0.0011531630580463746 -0.00026732978279894894 -0.000874779113730152
4 0.001247441419088759 -0.00028047857431324883 -0.0003920048815869303
2 0.0027101271646403423 -0.015178516582600388 -0.0032858355600938623
8 -0.00876992603624243 -0.003305514219532697 -0.0033826232132901134

Bonds

1 19 5 9
2 19 5 10
3 9 1 2
4 8 1 6
5 8 1 7
6 14 3 4
7 18 3 5
8 16 2 3
9 8 2 8

Angles

1 33 3 5 9
2 33 3 5 10
3 34 9 5 10
4 17 2 1 6
5 17 2 1 7
6 27 2 3 4
7 31 2 3 5
8 29 4 3 5
9 24 1 2 3
10 17 1 2 8

Dihedrals

1 8 6 1 2 8
2 8 7 1 2 8
3 23 4 3 5 9
4 23 4 3 5 10
5 21 1 2 3 4

Impropers

1 1 2 1 3 8
2 1 1 2 6 7
