LAMMPS data file via write_data, version 29 Sep 2021, timestep = 3000

7140 atoms
69 atom types
8060 bonds
60 bond types
15170 angles
170 angle types
23790 dihedrals
256 dihedral types
2470 impropers
5 improper types

0 95.94 xlo xhi
0 95.94 ylo yhi
0 95.94 zlo zhi

Masses

1 1.008
2 15.999
3 12.011
4 12.011
5 12.011
6 12.011
7 12.011
8 1.008
9 12.011
10 12.011
11 12.011
12 1.008
13 12.011
14 12.011
15 1.008
16 12.011
17 15.999
18 14.007
19 14.007
20 14.007
21 1.008
22 1.008
23 12.011
24 15.999
25 15.999
26 1.008
27 12.011
28 15.999
29 12.011
30 12.011
31 12.011
32 12.011
33 12.011
34 14.007
35 12.011
36 12.011
37 12.011
38 12.011
39 1.008
40 12.011
41 15.999
42 1.008
43 12.011
44 15.999
45 15.999
46 12.011
47 12.011
48 12.011
49 12.011
50 1.008
51 12.011
52 15.999
53 1.008
54 1.008
55 12.011
56 12.011
57 12.011
58 14.007
59 12.011
60 12.011
61 32.06
62 12.011
63 14.007
64 12.011
65 1.008
66 12.011
67 1.008
68 22.99
69 35.453

Pair Coeffs # lj/cut/coul/long

1 0 0
2 0.1554 3.16557
3 0.066 3.5
4 0.066 3.5
5 0.066 3.5
6 0.066 3.5
7 0.066 3.5
8 0.03 2.5
9 0.076 3.55
10 0.076 3.55
11 0.076 3.55
12 0.03 2.42
13 0.07 3.55
14 0.07 3.55
15 0.03 2.42
16 0.105 3.75
17 0.21 2.96
18 0.17 3.25
19 0.17 3.25
20 0.17 3.25
21 0 0
22 0 0
23 0.105 3.75
24 0.21 2.96
25 0.17 3
26 0 0
27 0.105 3.75
28 0.21 2.96
29 0.066 3.5
30 0.066 3.5
31 0.066 3.5
32 0.066 3.5
33 0.076 3.55
34 0.17 3.25
35 0.066 3.5
36 0.066 3.5
37 0.066 3.5
38 0.066 3.5
39 0.03 2.5
40 0.07 3.55
41 0.17 3.07
42 0 0
43 0.105 3.75
44 0.21 2.96
45 0.14 2.9
46 0.066 3.5
47 0.066 3.5
48 0.066 3.5
49 0.066 3.5
50 0.03 2.5
51 0.07 3.55
52 0.17 3.12
53 0 0
54 0.03 2.5
55 0.066 3.5
56 0.066 3.5
57 0.066 3.5
58 0.17 3.25
59 0.07 3.55
60 0.07 3.55
61 0.25 3.55
62 0.07 3.55
63 0.17 3.3
64 0.066 3.5
65 0 0
66 0.066 3.5
67 0.015 2.5
68 0.0005 4.07
69 0.71 4.02

Bond Coeffs # harmonic

1 350 1.51
2 570 1.229
3 450 1.364
4 317 1.522
5 214 1.327
6 300 1.79
7 490 1.335
8 317 1.522
9 340 1.09
10 410 1.444
11 400 1.49
12 656 1.25
13 457 1.358
14 553 0.945
15 320 1.41
16 250 1.47
17 400 1.38
18 320 1.45
19 450 1.37
20 450 1.364
21 553 0.945
22 268 1.529
23 222 1.81
24 320 1.41
25 245 1.781
26 337 1.449
27 382 1.448
28 340 1.09
29 317 1.51
30 317 1.51
31 367 1.471
32 337 1.449
33 166 2.038
34 250 1.73
35 250 1.76
36 250 1.76
37 250 1.47
38 200 1.69
39 320 1.45
40 320 1.45
41 450 1.37
42 450 1.364
43 300 1.725
44 300 1.725
45 434 1.01
46 427 1.381
47 600 1
48 350 1.445
49 434 1.01
50 481 1.34
51 434 1.01
52 434 1.01
53 340 1.08
54 549 1.34
55 427 1.433
56 469 1.4
57 367 1.08
58 400 1.45
59 483 1.339
60 500 1.32

Angle Coeffs # harmonic

1 80 121.4
2 80 126
3 80 121
4 70 108
5 70 116
6 80 117.2
7 80 120.4
8 81 111.4
9 83 123.4
10 75 109
11 75 119
12 70 114.2
13 70 116.6
14 70 116.6
15 80 122.9
16 81 111.4
17 70 116
18 80 120.4
19 35 115
20 35 115
21 35 123
22 40 114
23 40 115
24 40 115
25 70 115.5
26 80 125.3
27 35 115
28 70 115.5
29 70 116
30 70 120
31 80 120.4
32 81 111.4
33 85 120
34 70 117
35 70 117
36 80 126
37 80 126
38 35 122
39 80 122.5
40 35 113
41 55 108.5
42 49 105.4
43 35 109
44 35 113
45 63 111.1
46 50 109.5
47 58.35 112.7
48 63 111.1
49 50 114.7
50 50 109.5
51 50 109.5
52 69 109.8
53 69 109.8
54 78 111.7
55 50 109.5
56 63 110.1
57 80 109.7
58 50 114.7
59 56.2 109.47
60 80 111.2
61 33 107.8
62 35 109.5
63 35 109.5
64 35 109.5
65 35 109.5
66 35 109.5
67 35 109.5
68 37.5 110.7
69 51 107.6
70 35 109.5
71 63 111.1
72 63 112.4
73 35 109.5
74 40 109.5
75 40 109.5
76 50 109.5
77 50 109.5
78 50 114.7
79 63 112
80 63 114
81 80 111.2
82 35 109.5
83 80 111.2
84 80 111.2
85 35 109.5
86 63 110.1
87 65 109
88 62 98.9
89 68 103.7
90 62 104.2
91 62 104.2
92 60 109.5
93 83 116.9
94 75 111
95 75 111
96 75 111
97 75 111
98 83 116.9
99 70 126.4
100 46 115.7
101 50 118
102 50 121.9
103 70 112
104 70 108.6
105 35 110.2
106 35 119.8
107 35 120
108 38 118.4
109 35 119.8
110 50 118
111 50 121.9
112 70 118
113 75 109.47
114 51.8 107.2
115 63 111.1
116 35 109.5
117 43.6 106.4
118 35 116
119 50 116
120 50 116
121 63 112
122 70 119.7
123 70 130
124 35 114.5
125 35 117
126 35 117
127 35 119.7
128 60 114
129 35 120
130 70 123
131 70 123
132 70 124
133 75 121.5
134 85 119.4
135 85 120.7
136 35 123.3
137 85 117
138 85 119.7
139 70 119.7
140 63 120
141 70 120
142 70 120
143 70 120
144 70 120
145 70 120
146 70 124
147 75 120
148 85 119.4
149 85 120
150 35 119.1
151 35 120
152 35 120
153 70 120
154 35 116
155 70 116
156 70 116
157 70 120
158 70 121.5
159 70 124
160 75 120
161 50 113
162 43.6 109.5
163 55 114
164 70 120.5
165 35 113
166 50 118
167 70 117
168 70 120.5
169 70 117
170 70 117

Dihedral Coeffs # opls

1 1.6 3.2 0 0
2 0 0.5 0 0
3 0 0 0 0
4 0 0 0 0
5 0.7 -1.5 0 0
6 -0.5 0.2 0 0
7 0.8 -0.76 0 0
8 -0.9 0.3 0 0
9 0 0 0.3 0
10 3 5.5 0 0
11 0 5 0 0
12 1.5 5.5 0 0
13 -2 5 0 0
14 1.5 5.5 0 0
15 4 5 0 0
16 0 0 0.085 0
17 0 0 0 0
18 0 0 0 0
19 -0.65 0 0 0
20 0 0.82 0 0
21 0 0 0 0
22 0 0 0 0
23 0 0.546 0 0
24 0 1.412 0 0
25 5.26 0.82 0 0
26 0 0 0 0
27 1.454 -0.144 -0.775 0
28 0 0 0.275 0
29 0 0 -0.553 0
30 0 0 0.132 0
31 0 0 0 0
32 0 0 0.36 0
33 1.173 0.189 -1.2 0
34 0.65 0 0 0
35 1.816 1.222 1.581 0
36 0 0 0 0
37 0 0 0 0
38 0 0 0.36 0
39 0 0 0.275 0
40 0 0.82 0 0
41 0 0.82 0 0
42 0 0 0 0
43 0 5.124 0 0
44 0 5 0 0
45 4.669 5.124 0 0
46 1.5 5 0 0
47 -2 5 0 0
48 4.669 5.124 0 0
49 4 5 0 0
50 0.4 4.9 0 0
51 0 4.9 0 0
52 0 6.603 0 0
53 0 6.089 0 0
54 0 4.9 0 0
55 0 6.089 0 0
56 0 6.089 0 0
57 2.3 6.089 0 0
58 0 4.9 0 0
59 4.542 6.603 1.045 0
60 2.3 6.089 0 0
61 0 4.9 0 0
62 2.3 6.089 0 0
63 2.3 6.089 0 0
64 0 4.9 0 0
65 2.3 6.089 0 0
66 4.6 0 0 0
67 0 4.9 0 0
68 2.3 6.089 0 0
69 0 4.9 0 0
70 0 4.9 0 0
71 0 4.9 0 0
72 2.3 6.089 0 0
73 0.9 0.23 -0.505 0
74 0 0 0 0
75 2.5 6 0 0
76 3.2 -3 0 0
77 0 0 0 0
78 2 0 0 0
79 0 2.1 0 0
80 0 2.1 0 0
81 0 0.2 0 0
82 0 2.1 0 0
83 0 1.1 0 0
84 0 0.2 0 0
85 0 14 0 0
86 0 14 0 0
87 0 14 0 0
88 0 14 0 0
89 -0.356 -0.174 0.492 0
90 0 0 0.352 0
91 -0.9 0 0 0
92 -0.9 0 0 0
93 0 0 0.3 0
94 0 0 0.3 0
95 5.519 -6.7 0.581 0
96 2.722 -5.154 0 0
97 0 1.682 0 0
98 0 1.682 0 0
99 3 3 0 0
100 -4.344 -1.714 0 0
101 1.711 -0.5 0.663 0
102 1.428 0.086 0.029 0
103 -0.55 0 1 0
104 -6.18 0 0 0
105 -2.06 -0.313 0.315 0
106 -4.344 -1.714 0 0
107 -9 2 0.8 0
108 0 0 -0.1 0
109 -1.697 -0.456 0.585 0
110 9.508 0 0 0
111 -1.552 0 0 0
112 4.319 0 0 0
113 8 0 0 0
114 6.28 -1.467 2.03 0
115 0 0 0.468 0
116 1.3 -0.05 0.2 0
117 2.619 -0.62 0.258 0
118 0 0 0.4 0
119 2.392 -0.674 0.55 0
120 0.845 -0.962 0.713 0
121 0 0 0.3 0
122 2.732 -0.229 0.485 0
123 0 0 0.452 0
124 -0.55 0 0 0
125 0 0 0.468 0
126 -0.25 0 0 0
127 2 0 0 0
128 0 0 0.4 0
129 11.035 -0.968 0.27 0
130 -1.013 -0.709 0.473 0
131 -0.8 0 0 0
132 0 0 0.464 0
133 0.845 -0.962 0.713 0
134 0 0 0.3 0
135 0 0 0.366 0
136 0 0 0.462 0
137 0 0 0.384 0
138 1 0 0 0
139 0.925 -0.576 0.677 0
140 1.941 -0.836 0.935 0
141 0 0 0.647 0
142 0 0 0.558 0
143 0 0 0.647 0
144 -0.521 -2.018 1.996 0
145 -0.5 -1.5 1 0
146 -1.22 -0.126 0.422 0
147 0.65 -0.25 0.67 0
148 0 0 0.76 0
149 0 0 0.198 0
150 0 0 0.76 0
151 0 0 0.76 0
152 0 0 0 0
153 -2.365 0.912 -0.85 0
154 -1.737 1.251 -3.501 0
155 0 0 0 0
156 0 0.462 0 0
157 4.753 -0.734 0 0
158 0 0 0 0
159 0 0 0 0
160 0 0 0 0
161 0 0 0 0
162 0 0 0 0
163 0.416 -0.128 0.695 0
164 -0.19 -0.417 0.418 0
165 0 0 0.56 0
166 0 0 0.4 0
167 0 0 0.56 0
168 1.711 -0.5 0.663 0
169 0 0 0.468 0
170 0.5 0 0 0
171 2.817 -0.169 0.543 0
172 0.346 0.405 -0.904 0
173 0 0 0.3 0
174 0 0 0.318 0
175 0 0 -0.372 0
176 0 -8 0 0
177 0 -8 0 0
178 0 0 0 0
179 0 0 0 0
180 -0.5 0.5 -0.5 0
181 0 -0.4 0 0
182 0 0 0 0
183 1.438 -0.124 0.264 0
184 0 0 0.347 0
185 0 0 0.302 0
186 0 0 0.261 0
187 0 0 0.462 0
188 0 -7.414 1.705 0
189 0 0.6 0 0
190 1.6 5.1 0 0
191 0 0 0.3 0
192 0 0 0.3 0
193 0.65 -0.25 0.67 0
194 0 0 0.76 0
195 -3.5 3 0 0
196 0 2.5 0 0
197 0 3 0 0
198 0.4 5.5 0 0
199 3 3 0 0
200 0 2.1 0 0
201 0 2.1 0 0
202 0 2.1 0 0
203 0 2.1 0 0
204 0 0 0.3 0
205 0 0 0.3 0
206 0 0 0.3 0
207 -7.582 3.431 3.198 0
208 0 2.03 0 0
209 0 -8 0 0
210 0 -8 0 0
211 0 14 0 0
212 0 14 0 0
213 0 14 0 0
214 0 14 0 0
215 0 14 0 0
216 0 14 0 0
217 0 14 0 0
218 0 14 0 0
219 0 14 0 0
220 -1.6 14 0 0
221 0 14 0 0
222 0 14 0 0
223 0 14 0 0
224 0.205 -0.531 0 0
225 0 0 -0.372 0
226 0 0 -0.372 0
227 1.241 3.353 -0.286 0
228 0 7.25 0 0
229 0 7.25 0 0
230 0 7.25 0 0
231 0 7.25 0 0
232 0 7.25 0 0
233 0 7.25 0 0
234 0 7.25 0 0
235 0 7.25 0 0
236 0 7.25 0 0
237 0 7.25 0 0
238 0 7.25 0 0
239 0 7.25 0 0
240 0 7.25 0 0
241 0 7.25 0 0
242 0 0 0 0
243 0 7.25 0 0
244 0 7.25 0 0
245 0 7.25 0 0
246 0 7.25 0 0
247 0 7.25 0 0
248 0 7.25 0 0
249 1.816 1.222 1.581 0
250 0 0.82 0 0
251 1 0 0 0
252 6.28 -1.467 2.03 0
253 1.428 0.086 0.029 0
254 1.438 -0.124 0.264 0
255 1.3 -0.05 0.2 0
256 1.3 -0.05 0.2 0

Improper Coeffs # harmonic

1 10.5 0
2 10.5 0
3 1 0
4 15 0
5 1.1 0

Atoms # full

6520 48 13 -0.115 30.25102577668353 0.4451453674389508 5.180140774230697 0 1 0
6521 48 14 0 30.26540527651117 0.1137721361575653 3.6502442680482154 0 1 0
3404 28 8 0.06 39.82836800398569 27.678843574739574 47.89613843442543 0 0 0
6526 48 14 0 29.92213939308738 0.4572571145030051 0.6963326623959315 0 1 0
6527 48 13 -0.115 31.29562544049662 0.5296217996497461 1.3705811933674341 0 1 0
6528 48 13 -0.115 31.20921150996524 0.9672674489436518 2.8234707708775053 0 1 0
6631 48 15 0.115 31.217114773062843 0.648443348087074 5.585526192000382 0 1 0
6632 48 15 0.115 32.07829054660515 1.0803906164245287 0.8148158471119163 0 1 0
6633 48 15 0.115 32.14795844921341 1.1475519801675798 3.37148897909909 0 1 0
3806 32 15 0.115 39.034325618958725 19.695802710042567 6.624922160217161 0 0 0
3815 32 8 0.06 38.829197660886294 17.175214293188724 6.0234032689894015 0 0 0
3817 32 8 0.06 36.82947147403252 15.78741549172753 6.205173383915084 0 0 0
3753 32 14 0 33.12273604328957 26.82590650506226 6.278881052480102 0 0 0
3754 32 14 0 30.702390266040425 27.207865327446562 6.087448393201801 0 0 0
3758 32 13 -0.115 32.804807343932715 25.397288418665042 6.255388197402781 0 0 0
3759 32 40 0.15 31.497519999860526 24.999864463363934 6.17286877855249 0 0 0
3760 32 13 -0.115 30.440422964739565 25.873927297864604 6.084160014903601 0 0 0
3780 32 41 -0.585 31.201655835595645 23.671569811528535 6.145009368362302 0 0 0
3801 32 15 0.115 33.51889721575376 24.604329118825763 6.376442838886556 0 0 0
3802 32 15 0.115 29.47421264411596 25.466068138929504 5.997702336981713 0 0 0
3819 32 42 0.435 32.04643615863689 23.226178187831515 6.085891692195169 0 0 0
3732 32 14 0 40.71176523882306 25.663503600973314 6.115879193438689 0 0 0
3733 32 14 0 39.54758693917034 26.462115845643975 6.215152394800095 0 0 0
3741 32 14 0 37.04094320356917 26.803792767304905 6.4638946160615 0 0 0
3742 32 14 0 38.25600813814593 25.829973576875865 6.384776333040562 0 0 0
3743 32 14 0 38.210407971854586 24.404223159701107 6.5283278438480865 0 0 0
3744 32 14 0 39.408390534196975 23.68382363792788 6.3473271227736285 0 0 0
3745 32 40 0.15 40.61471004670791 24.29030220789264 6.165769778408837 0 0 0
3746 32 4 -0.12 35.611626666131265 26.272463599188058 6.603079959827198 0 0 0
3747 32 14 0 34.46857179286857 27.270767053189523 6.425682708258107 0 0 0
3761 32 4 -0.12 39.386581447867606 22.21749140689026 6.4061654830963155 0 0 0
3762 32 14 0 37.924809579941424 22.10836352503318 6.712223087272397 0 0 0
3763 32 14 0 37.249174625708164 23.326040435824897 6.749044879958443 0 0 0
3793 32 8 0.06 35.4595221201311 25.54313472425911 5.8757968520474835 0 0 0
3803 32 8 0.06 39.61678218025349 21.714223593411543 5.466946318537214 0 0 0
3724 32 13 -0.115 45.55427598196764 26.772767985528656 5.4298209127023 0 0 0
3725 32 14 0 44.17381248155521 26.7623825977476 5.609714437087514 0 0 0
3730 32 14 0 41.97270809514075 26.25321920121191 5.943898755351505 0 0 0
3731 32 4 -0.12 43.26199660716845 25.585060297774056 5.778679132279477 0 0 0
3777 32 41 -0.585 41.716285599756446 23.515671797939444 6.00069528484569 0 0 0
3783 32 15 0.115 46.067671518435546 25.827548103471504 5.456773259726331 0 0 0
3785 32 8 0.06 43.63551771358367 25.033855817073324 6.593683944570724 0 0 0
3786 32 8 0.06 43.32163076504479 25.012096007444434 4.836002521315146 0 0 0
3810 32 42 0.435 47.93472166829533 27.06509417724223 5.143768594979839 0 0 0
3814 32 42 0.435 41.46660912583405 22.60763348966563 6.032225381412798 0 0 0
1584 13 5 -0.06 33.14796525534148 30.20532479964049 0.8304519485320817 0 0 1
1585 13 5 -0.06 33.482644325829014 31.267056963193046 1.9561237335054338 0 0 1
1586 13 4 -0.12 34.22687488256671 32.5011661673171 1.371915305129171 0 0 1
1623 13 3 -0.18 33.19339254963484 28.764920937353146 1.3389780416201356 0 0 1
1637 13 8 0.06 32.06068690547758 30.370914007374868 0.555313315745859 0 0 1
1638 13 8 0.06 32.56161694183518 31.582328981695614 2.3461884339960455 0 0 1
1640 13 8 0.06 33.98787588060103 33.340558308073184 2.0824457759880284 0 0 1
1677 13 8 0.06 33.77872168123102 29.898624455839332 3.6419415905999295 0 0 1
1680 13 8 0.06 32.82661598127972 28.03719090633826 0.5993638711805858 0 0 1
1681 13 8 0.06 32.61815315521745 28.533673312466597 2.2401889469546057 0 0 1
1682 13 8 0.06 34.19248741342972 28.418923667712335 1.6190399240991262 0 0 1
3750 32 40 0.15 33.66908784390461 29.558641046966333 6.329346037215951 0 0 0
3751 32 14 0 32.35379640948558 29.121773284318337 6.244501773005564 0 0 0
3752 32 14 0 32.09791989742578 27.7539422775359 6.190624606453184 0 0 0
3755 32 4 -0.12 29.576929355928854 28.25416936254853 6.006277520751771 0 0 0
3756 32 4 -0.12 29.96309608331538 29.539148862223417 6.7478031867311605 0 0 0
3757 32 4 -0.12 31.199730479167233 30.141234444035277 6.0969758435145085 0 0 0
3781 32 41 -0.585 33.85788211145866 30.89184347958397 6.332798196213754 0 0 0
3795 32 8 0.06 29.378439722744 28.44337991759766 4.91221197943222 0 0 0
3796 32 8 0.06 28.627145083655876 27.781443443026962 6.430514475684744 0 0 0
3797 32 8 0.06 29.09343956303585 30.185165059488455 6.6759507750257026 0 0 0
3799 32 8 0.06 31.02654106594164 30.396301965655308 5.0449989596704725 0 0 0
3800 32 8 0.06 31.47950912073267 31.111429649994566 6.628742502707836 0 0 0
1622 13 3 -0.18 34.336946990887725 30.69558855004004 3.079004505540232 0 0 1
1639 13 8 0.06 35.31413110028022 32.29048575886365 1.4371565939930804 0 0 1
1678 13 8 0.06 34.52550419479805 31.54390275339813 3.7540934166273594 0 0 1
1679 13 8 0.06 35.27518204095257 30.368702839644563 2.7096531909688584 0 0 1
3734 32 14 0 39.6728247454249 27.877383364459362 6.192766511781213 0 0 0
3735 32 14 0 40.978147671753824 28.462394133513165 6.002511997377149 0 0 0
3736 32 4 -0.12 41.09886150975308 29.956788363756324 5.956138031728222 0 0 0
3737 32 4 -0.12 40.018091107981995 30.648713737700103 6.836230758120372 0 0 0
3738 32 4 -0.12 38.647163394261185 30.225615123401436 6.269644289479751 0 0 0
3739 32 14 0 38.49908937393302 28.695970100072117 6.311343243532631 0 0 0
3740 32 14 0 37.209570068559316 28.19435907320954 6.450863615020958 0 0 0
3748 32 14 0 34.72506919270445 28.66623514037742 6.442606078282914 0 0 0
3749 32 4 -0.12 36.09915808624285 29.216471581743157 6.575926963073556 0 0 0
3788 32 8 0.06 41.04440675255774 30.376535985078473 4.895092418569087 0 0 0
3790 32 8 0.06 40.08581552285772 31.73729049108199 6.847824037316898 0 0 0
3792 32 8 0.06 38.592041928577586 30.573402434485978 5.235280852433915 0 0 0
3794 32 8 0.06 36.2724697076965 29.98558805715384 5.784695243533512 0 0 0
3820 32 42 0.435 34.787480944060306 31.13232895618183 6.354578521564342 0 0 0
3417 29 40 0.15 45.66730427731023 32.12386760553234 0.017693287073699143 0 0 1
3469 29 41 -0.585 45.955289936938044 31.582441962601575 1.2138464100465793 0 0 1
3504 29 42 0.435 45.935833695491894 30.610980099131954 1.127250451658917 0 0 1
3505 29 8 0.06 45.6494335090429 33.93486201221788 1.9625245119246395 0 0 1
3723 32 40 0.15 46.25214018829053 27.963139957207876 5.247377256628394 0 0 0
3726 32 14 0 43.432207234135994 27.970080080165307 5.646102145120478 0 0 0
3727 32 13 -0.115 44.146323517817464 29.19468130018847 5.472154223752499 0 0 0
3728 32 14 0 45.540382319696526 29.156393894709556 5.287402275801434 0 0 0
3729 32 14 0 42.057987599623615 27.64522435308679 5.8669327775156646 0 0 0
3775 32 41 -0.585 47.57795807560874 27.93770191942606 5.048990339200874 0 0 0
3776 32 3 -0.18 46.302434397572775 30.502643109017978 5.131044900197742 0 0 0
3784 32 15 0.115 43.755151191444185 30.162390105324775 5.424235103933761 0 0 0
3787 32 8 0.06 42.03094657056681 30.28553407630964 6.36491683594466 0 0 0
3811 32 8 0.06 47.31345105188788 30.459872761085258 5.583161296695355 0 0 0
3812 32 8 0.06 45.824358296529994 31.35430248419496 5.573753966974077 0 0 0
3813 32 8 0.06 46.41538884522906 30.762762183269054 4.070848348124434 0 0 0
1571 13 14 0 31.625498638430216 38.52532321352891 0.8734608543941669 0 0 1
1572 13 14 0 32.47778433413212 37.41261173083346 1.1151453253594559 0 0 1
1573 13 14 0 32.51170662175295 36.397587439527456 0.21128118319730335 0 0 1
1578 13 40 0.15 33.35952764665951 35.300301764769415 0.3318682565250883 0 0 1
1619 13 3 -0.18 31.64425897714058 39.755505939507316 1.7977290470146259 0 0 1
1620 13 3 -0.18 33.26789893926714 37.45872608739182 2.410547022600087 0 0 1
1633 13 8 0.06 29.3172407265093 39.91102705245613 0.6069844420805272 0 0 1
1670 13 8 0.06 32.68624236270399 39.97972768968295 2.1280059025725895 0 0 1
1671 13 8 0.06 30.91783712628222 39.68493848426252 2.5711092866304965 0 0 1
1672 13 8 0.06 31.422490820280498 40.72033087036559 1.3213688440340958 0 0 1
1673 13 8 0.06 33.247760713444634 36.489750346789016 2.9397351409365955 0 0 1
1674 13 8 0.06 32.85698486813955 38.11317055543295 3.2293311315624726 0 0 1
1621 13 41 -0.585 34.42113745257517 35.33186441893508 1.196366414669097 0 0 1
1675 13 8 0.06 34.349347042901066 37.65695567779237 2.2136020786900086 0 0 1
1676 13 42 0.435 35.01635718341987 34.69907183302277 0.9280514598442249 0 0 1
3470 29 3 -0.18 46.06734814489478 34.4316041980893 1.0389503946007586 0 0 1
3506 29 8 0.06 45.548475075291925 35.345189150873615 0.9773919666402924 0 0 1
3507 29 8 0.06 47.14254153845955 34.58139707103788 1.1470667799431322 0 0 1
1668 13 8 0.06 27.06949259817217 41.53173285032313 0.27213216727732314 0 0 1
1161 9 8 0.06 19.633097595733258 0.6910786388169503 9.660933586802324 0 0 0
1070 9 40 0.15 24.49791897718161 0.8452468766986654 13.43136633198757 0 0 0
1103 9 3 -0.18 20.734815646851896 0.6718945130374849 9.766407979790111 0 0 0
1104 9 41 -0.585 24.88569182384787 1.0004596591022223 12.159521357948742 0 0 0
1107 9 44 -0.47 26.256949145120164 2.9396542429216024 12.990834555009307 0 0 0
1115 9 8 0.06 22.909299222131587 0.8459191443573012 11.143501659807475 0 0 0
1117 9 8 0.06 20.688229310409444 0.330395632251994 11.932697499595278 0 0 0
1160 9 8 0.06 21.082979795240664 1.6639353843103524 9.909874093693668 0 0 0
1162 9 8 0.06 21.202907311064653 0.24342043308671252 8.842084655390039 0 0 0
1163 9 42 0.435 25.461302305445958 1.7562245176887228 12.07871125847104 0 0 0
1080 9 59 0.2 28.961785408244825 5.637712193989652 13.45221184226797 0 0 0
1089 9 14 0 29.501212416422515 5.679658375210298 12.183002315139168 0 0 0
1090 9 13 -0.115 29.50956642699461 4.561507162120921 11.311213691829435 0 0 0
1091 9 13 -0.115 30.015296503687118 4.679647206364023 10.058664709497473 0 0 0
1092 9 14 0 30.54358000267068 5.859915540001626 9.584851195668833 0 0 0
1109 9 3 -0.18 31.092366161513773 5.904356719180583 8.184946530423716 0 0 0
1134 9 15 0.115 29.13862097353089 3.657845285899199 11.72701174693672 0 0 0
1135 9 15 0.115 29.97130478988346 3.82117102935695 9.381244578382104 0 0 0
1168 9 8 0.06 30.56452684420125 6.634672026584995 7.6047031610825675 0 0 0
1169 9 8 0.06 31.098604175808788 4.938534758938919 7.646275261722955 0 0 0
1170 9 8 0.06 32.088456875810614 6.218393048480438 8.173121591302657 0 0 0
2829 23 14 0 25.25506848985843 13.572668599927635 13.677396522105184 0 0 0
2834 23 14 0 26.2968016015659 12.634167181268248 11.653025412423087 0 0 0
2835 23 14 0 25.544174492333507 12.439894766111516 12.831001787112317 0 0 0
2836 23 14 0 26.514244608621745 11.407537378600658 10.833999592902927 0 0 0
2837 23 4 -0.12 27.354023786596247 11.617746340017357 9.575258479109328 0 0 0
2838 23 4 -0.12 27.14598035048104 13.031664923928794 8.976072036876342 0 0 0
2840 23 13 -0.115 25.049085446545398 11.112653084505284 13.17534092532199 0 0 0
2841 23 40 0.15 25.34455436236218 10.029057113584697 12.334315090173062 0 0 0
2842 23 13 -0.115 26.05300214752985 10.16386157938806 11.183004673298592 0 0 0
2862 23 41 -0.585 24.878538558758994 8.826126931513427 12.675093415866113 0 0 0
2878 23 8 0.06 27.05936464239833 10.846810060785192 8.883413093975392 0 0 0
2880 23 8 0.06 26.12068861216644 13.113778191412129 8.744810313321917 0 0 0
2884 23 15 0.115 26.313084998265637 9.379170573407576 10.551732377624639 0 0 0
2901 23 42 0.435 24.400685562157527 8.822656416198456 13.468344142092885 0 0 0
1087 9 4 -0.12 30.073614666135935 8.105098484644744 12.611457388577772 0 0 0
1088 9 14 0 30.063194998737497 6.87862431373471 11.699381399560833 0 0 0
1093 9 14 0 30.578506841311363 6.995034420608471 10.400360269186256 0 0 0
1108 9 3 -0.18 31.123324635718156 8.279782276694638 9.915562693843835 0 0 0
1132 9 8 0.06 29.145816144411004 8.588596827012765 12.469465449009428 0 0 0
1133 9 8 0.06 30.868038661034944 8.841896223064149 12.390203503567593 0 0 0
1165 9 8 0.06 30.346160776648066 9.125033717415036 10.064332185781637 0 0 0
1166 9 8 0.06 31.346829842104654 8.326017219402395 8.829655837013043 0 0 0
1167 9 8 0.06 32.08829280609943 8.571975790764585 10.366136792883017 0 0 0
2877 23 8 0.06 28.38242389229947 11.43545223993854 9.7690043203259 0 0 0
2879 23 8 0.06 27.698840189419887 13.08110555640749 8.047895543063483 0 0 0
5431 44 4 -0.12 44.51172242814706 13.206210912310587 11.853149685710838 0 0 0
5432 44 5 -0.06 43.65317893440001 12.04019678800356 11.425823590081086 0 0 0
5433 44 4 -0.12 42.21275868275214 12.54101212954662 11.185975148461072 0 0 0
5434 44 4 -0.12 42.211313548935436 13.50990666048857 9.979040082613293 0 0 0
5507 44 5 -0.06 43.69908803107524 10.913164129678565 12.482593708190702 0 0 0
5509 44 3 -0.18 43.21489573595092 9.552751795384193 11.84936111140962 0 0 0
5570 44 8 0.06 45.54913394487707 12.903559476855381 11.837997047675938 0 0 0
5571 44 8 0.06 44.21668797676182 13.567747358035875 12.803620783083593 0 0 0
5572 44 8 0.06 43.96873206156278 11.595403419829527 10.454829314484753 0 0 0
5573 44 8 0.06 41.77102240406755 13.028390618280127 12.027909024371807 0 0 0
5574 44 8 0.06 41.54429643879539 11.727797379305478 11.03696654494581 0 0 0
5576 44 8 0.06 42.34095607094044 12.9047515908495 9.052291326821779 0 0 0
5619 44 8 0.06 44.75125750451835 10.806977370446532 12.776228514723247 0 0 0
5621 44 8 0.06 41.892241142716635 11.165363268637103 13.562615135206736 0 0 0
5623 44 8 0.06 43.75270136176093 9.312768449630509 10.912934730064263 0 0 0
5624 44 8 0.06 42.13873841927904 9.56703589391045 11.66273960449932 0 0 0
5625 44 8 0.06 43.389109937662965 8.693729914846783 12.5255114289546 0 0 0
2830 23 14 0 25.777753754802696 14.796798561435901 13.30756709264667 0 0 0
2832 23 40 0.15 26.523276205714236 14.946122249816176 12.150195454235886 0 0 0
2833 23 14 0 26.760850655887854 13.900006827901048 11.309229604071255 0 0 0
2863 23 41 -0.585 27.015178815731776 16.167784689703637 11.770514174729431 0 0 0
2902 23 42 0.435 26.76800479318599 16.839304021841354 12.367300777487065 0 0 0
2905 23 8 0.06 24.846576718032594 16.687738581956513 13.491607388120716 0 0 0
2839 23 4 -0.12 27.59985959439199 14.037359734602601 10.034232912918725 0 0 0
2881 23 8 0.06 28.65407601059196 13.88023293839483 10.330461788074334 0 0 0
2882 23 8 0.06 27.537602507136825 15.03224715131166 9.597109551866359 0 0 0
3772 32 40 0.15 33.89621410882441 19.53845883514412 7.737526688437712 0 0 0
3782 32 41 -0.585 33.20198601812248 18.41646522125463 7.962262427210865 0 0 0
3821 32 42 0.435 33.78304323674334 17.66499634098942 7.882442300308492 0 0 0
3768 32 13 -0.115 38.00966547283505 19.65148093360309 6.866266578250714 0 0 0
3769 32 14 0 37.39402929895587 18.406606624407846 7.092537214403535 0 0 0
3770 32 13 -0.115 36.03691047758322 18.378894683559846 7.347739854473723 0 0 0
3771 32 14 0 35.287479137578934 19.578657281729274 7.435912378034818 0 0 0
3778 32 4 -0.12 38.321121124290485 17.19076735063463 6.993114291527967 0 0 0
3779 32 3 -0.18 37.54908567038562 15.856443537181462 7.039832228036028 0 0 0
3807 32 15 0.115 35.57520157260186 17.485601642114826 7.560864064422161 0 0 0
3816 32 8 0.06 38.21180668705527 15.023886850516815 6.943406338027315 0 0 0
3818 32 8 0.06 37.06289079879902 15.774442629651185 7.952758429078722 0 0 0
3824 32 8 0.06 38.98849673926622 17.228280718167092 7.813455189206072 0 0 0
5420 44 9 0 47.48194413573888 16.446686037761683 11.960568463923268 0 0 0
5421 44 5 -0.06 46.24015518734503 15.587765165317663 12.15791869700067 0 0 0
5422 44 14 0 45.44444602809366 16.35789559029678 13.27720950736506 0 0 0
5423 44 14 0 45.351635162203166 15.42897327264469 10.958963027514926 0 0 0
5424 44 9 0 45.48375650646904 16.327594200458673 9.939953560969581 0 0 0
5425 44 4 -0.12 46.59388169450381 17.345448444299297 9.852086477030026 0 0 0
5426 44 10 -0.115 47.650025224026045 17.26170859523441 10.914385640744683 0 0 0
5427 44 4 -0.12 44.603262006390125 16.1925660041404 8.679052115233862 0 0 0
5428 44 4 -0.12 43.24258533692473 15.690098690153215 9.11185138471025 0 0 0
5429 44 9 0 43.37658540596526 14.488033416617107 10.027171069622495 0 0 0
5430 44 14 0 44.42213277501089 14.387958508504989 10.901951618315195 0 0 0
5436 44 13 -0.115 44.03078652005762 15.92738287018154 13.478133212758825 0 0 0
5562 44 8 0.06 46.56821782207644 14.65403580398929 12.533483802251098 0 0 0
5563 44 8 0.06 46.18489793372127 18.374371261153886 9.863863338543801 0 0 0
5564 44 8 0.06 47.0755556797348 17.26045872389123 8.873252651288466 0 0 0
5566 44 8 0.06 44.47493134164683 17.14883224622701 8.21219239166977 0 0 0
5567 44 8 0.06 45.14729219982991 15.5102293511792 8.076840561021172 0 0 0
5568 44 8 0.06 42.597400780293675 15.402467469737632 8.2081457685866 0 0 0
5569 44 8 0.06 42.75344141215537 16.521151320018618 9.631996111448183 0 0 0
5575 44 8 0.06 41.267294943986684 14.044502954845642 9.947173936850337 0 0 0
5577 44 15 0.115 43.47590882864185 15.761072572156976 12.565177650232132 0 0 0
3773 32 13 -0.115 33.21412935530756 20.735109798202174 7.809244288624802 0 0 0
3774 32 13 -0.115 33.83140703886594 21.96467828117286 7.622906436207648 0 0 0
3808 32 15 0.115 32.15348374677928 20.68026951766227 8.087146169749444 0 0 0
3809 32 15 0.115 33.25943286735559 22.810727741887884 7.781192842569705 0 0 0
3764 32 13 -0.115 35.893308125494066 23.270741234590496 7.071788505615193 0 0 0
3765 32 14 0 35.219651828447425 22.016974703947106 7.282406104464226 0 0 0
3766 32 14 0 35.90498492650307 20.830395215177557 7.2029451304099394 0 0 0
3767 32 14 0 37.262229651468786 20.838189159215766 6.931801165774764 0 0 0
3804 32 8 0.06 39.958522496356665 21.786835176131092 7.26747199326319 0 0 0
3805 32 15 0.115 35.23003686526837 24.03799821852979 7.166831031472732 0 0 0
3822 32 8 0.06 35.522174011671 25.87785949258434 7.596210036434737 0 0 0
3798 32 8 0.06 30.13239366685924 29.356863670433523 7.813797122549392 0 0 0
7016 50 14 0 34.01999804478495 31.645707610022733 12.952377777790147 0 0 0
7017 50 14 0 33.84612428507456 30.12957792245688 12.774535374023701 0 0 0
7129 50 15 0.115 33.02629707410044 28.26555276196136 13.65289900465472 0 0 0
3789 32 8 0.06 40.07435325694397 30.309332510518367 7.8605087502212045 0 0 0
3791 32 8 0.06 37.90826599578121 30.729036634847205 6.864197336858079 0 0 0
3823 32 8 0.06 36.12774569165074 29.6800218218237 7.549181164146754 0 0 0
7019 50 13 -0.115 34.52528879481519 29.446834223489763 11.584879516176283 0 0 0
7020 50 13 -0.115 35.387776829826784 30.301965942810266 10.689540892811873 0 0 0
7021 50 14 0 35.3510394560229 31.809701761206973 10.751405421962511 0 0 0
7022 50 14 0 35.12806856385099 32.39036913312824 12.16927872879834 0 0 0
7023 50 14 0 34.96688413405095 33.9274122275728 12.197257056481208 0 0 0
7027 50 13 -0.115 36.28657680285445 34.068135746379305 10.028400838921874 0 0 0
7028 50 13 -0.115 36.42393651179698 32.53007612325928 10.000516064166854 0 0 0
7130 50 15 0.115 34.41161794755223 28.345618860346523 11.371212711672234 0 0 0
7131 50 15 0.115 35.78813481444414 29.805603614387078 9.756512089781289 0 0 0
7133 50 15 0.115 36.635468312267705 32.19570726823452 8.969088007575818 0 0 0
7024 50 14 0 34.744309929009 34.47743599273512 13.621642918157333 0 0 0
7026 50 14 0 36.13969638786925 34.64401442214222 11.444121480467222 0 0 0
7030 50 14 0 34.56334634507349 36.03017347311589 13.69538704234597 0 0 0
7031 50 14 0 35.97133240125965 36.214499844969374 11.462135213648889 0 0 0
7032 50 14 0 35.61494173864377 36.75397271522855 12.871694974610541 0 0 0
7033 50 4 -0.12 35.51030498981811 38.314326081287376 13.071764693798885 0 0 0
7034 50 4 -0.12 35.75225991605909 38.991735725834886 11.703663648631178 0 0 0
7035 50 4 -0.12 37.032570081239314 38.48949335858639 11.056406400558702 0 0 0
7036 50 43 0.47 37.074556689571004 36.99526636468408 10.838160694082491 0 0 0
7037 50 44 -0.47 37.95444408937217 36.55140256241093 10.118873555706433 0 0 0
7132 50 15 0.115 37.015738421201 34.57908458625141 9.483874505207659 0 0 0
7135 50 8 0.06 34.52748091524363 38.65607435792182 13.514127760398345 0 0 0
7137 50 8 0.06 35.82493155183026 40.06338554632923 11.80268573330996 0 0 0
7138 50 8 0.06 34.85255288363357 38.82271352125217 11.135566963518949 0 0 0
7139 50 8 0.06 37.846187908892006 38.73240678921011 11.749280917030644 0 0 0
7140 50 8 0.06 37.26506310852698 38.8714664947716 10.109942951879065 0 0 0
2861 23 3 -0.18 19.11091145945307 6.07867201754019 20.495578417529053 0 0 0
2889 23 15 0.115 19.823496758261648 6.411703148358748 18.14056414795044 0 0 0
2899 23 8 0.06 19.98057331916214 5.3903145004908355 20.273738505973114 0 0 0
2900 23 8 0.06 18.35871689992253 5.885878067434545 19.691790206963695 0 0 0
2903 23 42 0.435 20.148831517986274 5.628827993334559 16.326054402368083 0 0 0
1067 9 40 0.15 23.830743129077245 0.2357721808126821 16.076261030194328 0 0 0
1068 9 14 0 24.735762478589084 1.2788100413052872 15.79176639168007 0 0 0