ITEM: TIMESTEP
0
ITEM: NUMBER OF ATOMS
7140
ITEM: BOX BOUNDS pp pp pp
0.0000000000000000e+00 9.5939999999999998e+01
0.0000000000000000e+00 9.5939999999999998e+01
0.0000000000000000e+00 9.5939999999999998e+01
ITEM: ATOMS id mol type x y z vx vy vz ix iy iz
6520 48 13 30.251 0.445145 5.18014 -0.00119911 -0.0175396 -0.00129228 0 1 0
6521 48 14 30.2654 0.113772 3.65024 -0.0137509 0.0187583 -0.00153097 0 1 0
6526 48 14 29.9221 0.457257 0.696333 0.0129791 -0.0218519 0.00034211 0 1 0
6527 48 13 31.2956 0.529622 1.37058 -0.0132198 0.00695503 0.000226841 0 1 0
6528 48 13 31.2092 0.967267 2.82347 -0.00736962 -0.019729 -0.00799617 0 1 0
6631 48 15 31.2171 0.648443 5.58553 -0.00556098 -0.0108346 -0.0258097 0 1 0
6632 48 15 32.0783 1.08039 0.814816 0.00417373 -0.0513437 0.00998534 0 1 0
6633 48 15 32.148 1.14755 3.37149 -0.0389945 0.0255477 0.00325592 0 1 0
3806 32 15 39.0343 19.6958 6.62492 -0.0130101 0.0105155 -0.0024395 0 0 0
3815 32 8 38.8292 17.1752 6.0234 -0.0110439 -0.00624481 -0.00431552 0 0 0
3817 32 8 36.8295 15.7874 6.20517 0.0136841 0.00571768 -0.00297024 0 0 0
3753 32 14 33.1227 26.8259 6.27888 -0.00655947 -0.0128065 -0.00721064 0 0 0
3754 32 14 30.7024 27.2079 6.08745 0.00961423 0.00938651 -0.00152233 0 0 0
3758 32 13 32.8048 25.3973 6.25539 0.00912965 0.0106144 -0.00441917 0 0 0
3759 32 40 31.4975 24.9999 6.17287 0.00343741 -0.00104062 0.00109473 0 0 0
3760 32 13 30.4404 25.8739 6.08416 -0.00878195 0.00350066 -0.0004954 0 0 0
3780 32 41 31.2017 23.6716 6.14501 -0.00297751 -0.00316747 -0.00332665 0 0 0
3801 32 15 33.5189 24.6043 6.37644 -0.0228596 -0.0186351 0.0165508 0 0 0
3802 32 15 29.4742 25.4661 5.9977 -0.000281766 -0.0234423 -0.00073905 0 0 0
3819 32 42 32.0464 23.2262 6.08589 0.00349314 0.0173456 -0.0130106 0 0 0
3732 32 14 40.7118 25.6635 6.11588 -0.00132903 0.000474559 0.00493543 0 0 0
3733 32 14 39.5476 26.4621 6.21515 -0.000977137 0.00606633 -0.00333773 0 0 0
3741 32 14 37.0409 26.8038 6.46389 0.00543579 -0.0181208 -0.0028931 0 0 0
3742 32 14 38.256 25.83 6.38478 -0.00551639 0.00365836 -0.00428918 0 0 0
3743 32 14 38.2104 24.4042 6.52833 -0.00517277 0.00309561 0.0061965 0 0 0
3744 32 14 39.4084 23.6838 6.34733 -0.00728782 -0.00413582 0.00244508 0 0 0
3745 32 40 40.6147 24.2903 6.16577 -0.00482858 0.00374525 0.00432543 0 0 0
3746 32 4 35.6116 26.2725 6.60308 -0.00517762 0.000454432 0.00618996 0 0 0
3747 32 14 34.4686 27.2708 6.42568 0.00352029 -0.00792402 0.00379372 0 0 0
3761 32 4 39.3866 22.2175 6.40617 0.00590359 -0.00150278 0.000975439 0 0 0
3762 32 14 37.9248 22.1084 6.71222 0.00484863 0.00371092 0.00281119 0 0 0
3763 32 14 37.2492 23.326 6.74904 0.000305663 0.00300113 -0.00374354 0 0 0
3793 32 8 35.4595 25.5431 5.8758 -0.013598 0.0106594 0.0107092 0 0 0
3803 32 8 39.6168 21.7142 5.46695 -3.53801e-05 -0.00189371 0.00598413 0 0 0
3724 32 13 45.5543 26.7728 5.42982 0.00677375 -0.000702895 0.00628021 0 0 0
3725 32 14 44.1738 26.7624 5.60971 0.00118327 -0.0032134 0.00292592 0 0 0
3730 32 14 41.9727 26.2532 5.9439 0.00376597 -0.00193812 0.00785359 0 0 0
3731 32 4 43.262 25.5851 5.77868 -0.000757197 -0.000211693 0.00235489 0 0 0
3777 32 41 41.7163 23.5157 6.0007 -0.0051265 -0.00121618 -0.00599148 0 0 0
3783 32 15 46.0677 25.8275 5.45677 0.00404424 0.0231845 0.024841 0 0 0
3785 32 8 43.6355 25.0339 6.59368 0.0194783 0.00434224 -0.01075 0 0 0
3786 32 8 43.3216 25.0121 4.836 -0.0063094 0.0274352 -0.00405714 0 0 0
3810 32 42 47.9347 27.0651 5.14377 0.013736 0.0108117 0.0172954 0 0 0
3814 32 42 41.4666 22.6076 6.03223 -0.00999115 0.00362078 -0.0179513 0 0 0
1584 13 5 33.148 30.2053 0.830452 0.00474051 0.00229523 -0.00216504 0 0 1
1585 13 5 33.4826 31.2671 1.95612 0.00435614 0.00465593 0.00462079 0 0 1
1586 13 4 34.2269 32.5012 1.37192 -0.00269414 0.00591044 -0.0063128 0 0 1
1623 13 3 33.1934 28.7649 1.33898 -0.00303014 0.00388316 0.00383252 0 0 1
1637 13 8 32.0607 30.3709 0.555313 0.00601 -0.00665294 0.019993 0 0 1
1638 13 8 32.5616 31.5823 2.34619 0.000990318 0.00084961 -0.00132594 0 0 1
1640 13 8 33.9879 33.3406 2.08245 -0.0217993 -0.0134279 -0.0057028 0 0 1
1677 13 8 33.7787 29.8986 3.64194 -0.00952711 0.00714314 0.00288737 0 0 1
1680 13 8 32.8266 28.0372 0.599364 -0.0146581 0.00126849 0.0251441 0 0 1
1681 13 8 32.6182 28.5337 2.24019 0.0216599 -0.0117949 0.0107924 0 0 1
1682 13 8 34.1925 28.4189 1.61904 -0.017793 -0.0112062 0.00109622 0 0 1
3750 32 40 33.6691 29.5586 6.32935 0.00459936 0.00316275 -0.00214186 0 0 0
3751 32 14 32.3538 29.1218 6.2445 0.00587933 -0.00637981 0.00445108 0 0 0
3752 32 14 32.0979 27.7539 6.19062 -0.00998291 -0.0108616 -0.00559611 0 0 0
3755 32 4 29.5769 28.2542 6.00628 -0.0048717 -0.0041023 0.000233555 0 0 0
3756 32 4 29.9631 29.5391 6.7478 0.0052439 -0.00147772 -0.000917851 0 0 0
3757 32 4 31.1997 30.1412 6.09698 -0.000174011 0.00273716 -0.00579709 0 0 0
3781 32 41 33.8579 30.8918 6.3328 0.000234714 -0.00373873 -0.00429589 0 0 0
3795 32 8 29.3784 28.4434 4.91221 -0.00725261 -0.0191773 0.00881822 0 0 0
3796 32 8 28.6271 27.7814 6.43051 0.00456506 9.3376e-05 0.0067127 0 0 0
3797 32 8 29.0934 30.1852 6.67595 -0.00507113 -0.0212172 -0.00301624 0 0 0
3799 32 8 31.0265 30.3963 5.045 0.00251072 0.0109834 -0.000903217 0 0 0
3800 32 8 31.4795 31.1114 6.62874 -0.00318221 0.000905208 0.00144137 0 0 0
1622 13 3 34.3369 30.6956 3.079 -0.00520428 -0.00126561 0.00741659 0 0 1
1639 13 8 35.3141 32.2905 1.43716 -0.00470076 0.00978431 0.0116083 0 0 1
1678 13 8 34.5255 31.5439 3.75409 -0.0239643 0.00656194 -0.0101578 0 0 1
1679 13 8 35.2752 30.3687 2.70965 -0.00326536 0.0176785 0.0118083 0 0 1
3734 32 14 39.6728 27.8774 6.19277 -0.0152717 0.00886115 0.00788923 0 0 0
3735 32 14 40.9781 28.4624 6.00251 0.00336504 0.00118294 0.0005953 0 0 0
3736 32 4 41.0989 29.9568 5.95614 0.00619196 0.00162426 0.00269538 0 0 0
3737 32 4 40.0181 30.6487 6.83623 0.00259994 0.0090456 0.00670569 0 0 0
3738 32 4 38.6472 30.2256 6.26964 -0.00471152 0.00156152 -0.00102706 0 0 0
3739 32 14 38.4991 28.696 6.31134 0.0163863 -0.00859359 -0.000176571 0 0 0
3740 32 14 37.2096 28.1944 6.45086 -0.00275855 0.00133563 0.00157711 0 0 0
3748 32 14 34.7251 28.6662 6.44261 0.00711082 0.00727579 0.00514647 0 0 0
3749 32 4 36.0992 29.2165 6.57593 0.00571924 0.00316621 0.00609655 0 0 0
3788 32 8 41.0444 30.3765 4.89509 0.0308012 0.0071006 0.0177609 0 0 0
3790 32 8 40.0858 31.7373 6.84782 -0.0136823 -0.0108599 0.01621 0 0 0
3792 32 8 38.592 30.5734 5.23528 0.00154804 -0.00534998 0.00348936 0 0 0
3794 32 8 36.2725 29.9856 5.7847 0.00759667 0.00973216 0.0162627 0 0 0
3820 32 42 34.7875 31.1323 6.35458 -0.010417 0.0109239 -0.0163458 0 0 0
3417 29 40 45.6673 32.1239 0.0176933 -0.0065258 0.00120253 0.00249735 0 0 1
3469 29 41 45.9553 31.5824 1.21385 -0.00673894 0.0019098 -0.00750587 0 0 1
3504 29 42 45.9358 30.611 1.12725 0.00876219 0.0174999 -0.00482031 0 0 1
3505 29 8 45.6494 33.9349 1.96252 -0.00507484 -0.0065638 -0.0145253 0 0 1
3723 32 40 46.2521 27.9631 5.24738 0.00467714 0.00461549 -0.00534832 0 0 0
3726 32 14 43.4322 27.9701 5.6461 -0.00812646 -0.00389747 -0.00175526 0 0 0
3727 32 13 44.1463 29.1947 5.47215 -0.00887225 0.00865537 -0.00625252 0 0 0
3728 32 14 45.5404 29.1564 5.2874 -0.00142519 -0.00226171 -0.00838463 0 0 0
3729 32 14 42.058 27.6452 5.86693 0.00529225 0.000308078 0.000336012 0 0 0
3775 32 41 47.578 27.9377 5.04899 -0.00605188 -0.00253378 -0.0054715 0 0 0
3776 32 3 46.3024 30.5026 5.13104 0.00167878 0.00713654 -0.00289199 0 0 0
3784 32 15 43.7552 30.1624 5.42424 0.0118863 0.00290159 -0.0212219 0 0 0
3787 32 8 42.0309 30.2855 6.36492 -0.00465244 -0.00412071 0.0215652 0 0 0
3811 32 8 47.3135 30.4599 5.58316 -0.00397048 0.0144291 0.00101629 0 0 0
3812 32 8 45.8244 31.3543 5.57375 0.00665012 0.0145029 -0.0185141 0 0 0
3813 32 8 46.4154 30.7628 4.07085 0.00319865 0.00848576 0.00445466 0 0 0
1571 13 14 31.6255 38.5253 0.873461 -0.00516986 0.00516065 -0.00245851 0 0 1
1572 13 14 32.4778 37.4126 1.11515 0.00663916 -0.0019987 -0.00158597 0 0 1
1573 13 14 32.5117 36.3976 0.211281 0.0037884 -0.000826632 0.00355667 0 0 1
1578 13 40 33.3595 35.3003 0.331868 -0.00539006 -0.00699796 0.0083811 0 0 1
1619 13 3 31.6443 39.7555 1.79773 -0.00312197 0.00656014 0.000542793 0 0 1
1620 13 3 33.2679 37.4587 2.41055 0.00657026 0.00686827 0.00307131 0 0 1
1633 13 8 29.3172 39.911 0.606984 0.00604445 -0.00179937 -0.0062627 0 0 1
1670 13 8 32.6862 39.9797 2.12801 -0.00353481 0.00678308 -0.0262298 0 0 1
1671 13 8 30.9178 39.6849 2.57111 -0.0134315 0.0153918 -0.0214272 0 0 1
1672 13 8 31.4225 40.7203 1.32137 0.015575 0.00277291 0.0169754 0 0 1
1673 13 8 33.2478 36.4898 2.93974 -0.00328303 0.0228666 0.00356621 0 0 1
1674 13 8 32.857 38.1132 3.22933 0.0110825 -0.0121043 -0.0090203 0 0 1
1621 13 41 34.4211 35.3319 1.19637 0.00106676 -0.00446417 -0.000701933 0 0 1
1675 13 8 34.3493 37.657 2.2136 -0.00660625 -0.0259158 -0.0151458 0 0 1
1676 13 42 35.0164 34.6991 0.928051 0.000828864 -0.00182043 -0.0143019 0 0 1
3470 29 3 46.0673 34.4316 1.03895 0.00645498 0.00502681 0.00217524 0 0 1
3506 29 8 45.5485 35.3452 0.977392 -0.0161684 -0.00844743 0.00927935 0 0 1
3507 29 8 47.1425 34.5814 1.14707 -0.00095667 0.0144819 0.0096549 0 0 1
1668 13 8 27.0695 41.5317 0.272132 -0.00188004 0.00119309 -0.0117182 0 0 1
1161 9 8 19.6331 0.691079 9.66093 -3.18812e-05 -0.012319 0.0136795 0 0 0
1070 9 40 24.4979 0.845247 13.4314 -0.00710282 0.00418056 -0.00773135 0 0 0
1103 9 3 20.7348 0.671895 9.76641 -0.00249119 0.00540166 -0.00650189 0 0 0
1104 9 41 24.8857 1.00046 12.1595 0.0040889 -4.09357e-05 0.00434015 0 0 0
1107 9 44 26.2569 2.93965 12.9908 0.00341882 0.00155009 0.00298721 0 0 0
1115 9 8 22.9093 0.845919 11.1435 -0.0245956 0.0102824 -0.00180634 0 0 0
1117 9 8 20.6882 0.330396 11.9327 0.0183667 -0.00773945 0.00779939 0 0 0
1160 9 8 21.083 1.66394 9.90987 -0.0171383 0.00293672 0.00427225 0 0 0
1162 9 8 21.2029 0.24342 8.84208 -0.00837835 0.0157907 -0.00186833 0 0 0
1163 9 42 25.4613 1.75622 12.0787 0.0081351 -0.0130637 -0.00428428 0 0 0
1080 9 59 28.9618 5.63771 13.4522 0.00193502 -0.00776184 -0.00754681 0 0 0
1089 9 14 29.5012 5.67966 12.183 -0.00236569 -0.00347226 0.00273184 0 0 0
1090 9 13 29.5096 4.56151 11.3112 0.00111707 -0.00179442 -0.00231933 0 0 0
1091 9 13 30.0153 4.67965 10.0587 -0.00526163 0.00142612 -0.00045222 0 0 0
1092 9 14 30.5436 5.85992 9.58485 -0.00440578 0.000930605 -0.000278966 0 0 0
1109 9 3 31.0924 5.90436 8.18495 0.000210041 0.000718346 0.00579281 0 0 0
1134 9 15 29.1386 3.65785 11.727 0.0192292 0.00818851 0.0165605 0 0 0
1135 9 15 29.9713 3.82117 9.38124 -0.0143852 0.0193851 0.00455672 0 0 0
1168 9 8 30.5645 6.63467 7.6047 0.0110004 0.011156 0.0222065 0 0 0
1169 9 8 31.0986 4.93853 7.64628 0.0204447 0.0145595 -0.00217522 0 0 0
1170 9 8 32.0885 6.21839 8.17312 -0.00809579 0.00905732 0.016444 0 0 0
2829 23 14 25.2551 13.5727 13.6774 -0.00402116 0.000159143 0.00587632 0 0 0
2834 23 14 26.2968 12.6342 11.653 0.00506987 -0.00932918 -0.0110341 0 0 0
2835 23 14 25.5442 12.4399 12.831 0.00152104 -0.0130206 -0.00197732 0 0 0
2836 23 14 26.5142 11.4075 10.834 -0.000806312 0.0160609 0.0015049 0 0 0
2837 23 4 27.354 11.6177 9.57526 0.00484858 -0.00460224 0.00509409 0 0 0
2838 23 4 27.146 13.0317 8.97607 0.00785349 -0.000944793 -0.00414939 0 0 0
2840 23 13 25.0491 11.1127 13.1753 0.00172664 0.0161891 0.00181748 0 0 0
2841 23 40 25.3446 10.0291 12.3343 0.00521026 -0.00428929 0.000659886 0 0 0
2842 23 13 26.053 10.1639 11.183 0.00769033 -0.0030263 -0.00878237 0 0 0
2862 23 41 24.8785 8.82613 12.6751 0.00439446 0.000609182 0.00188695 0 0 0
2878 23 8 27.0594 10.8468 8.88341 -0.00114458 -0.00196788 0.012211 0 0 0
2880 23 8 26.1207 13.1138 8.74481 0.00651386 -0.0198002 0.000413529 0 0 0
2884 23 15 26.3131 9.37917 10.5517 0.0229105 0.000274652 -0.0107243 0 0 0
2901 23 42 24.4007 8.82266 13.4683 -0.0233118 -0.005086 -0.00441501 0 0 0
1087 9 4 30.0736 8.1051 12.6115 0.00698928 -0.00315839 0.00866973 0 0 0
1088 9 14 30.0632 6.87862 11.6994 -0.00518196 -0.000771595 -0.00665235 0 0 0
1093 9 14 30.5785 6.99503 10.4004 0.00494982 0.00615101 -0.00648678 0 0 0
1108 9 3 31.1233 8.27978 9.91556 0.00734855 -0.00195764 0.00535098 0 0 0
1132 9 8 29.1458 8.5886 12.4695 0.0140073 -0.0149143 -0.00396787 0 0 0
1133 9 8 30.868 8.8419 12.3902 0.000124543 -0.0111142 0.0226987 0 0 0
1165 9 8 30.3462 9.12503 10.0643 0.00287133 -0.0196341 -0.00743888 0 0 0
1166 9 8 31.3468 8.32602 8.82966 0.0181959 0.00703634 0.0199623 0 0 0
1167 9 8 32.0883 8.57198 10.3661 -0.00156444 -0.00215067 -0.00205936 0 0 0
2877 23 8 28.3824 11.4355 9.769 -0.00323148 -0.0174177 -0.0059239 0 0 0
2879 23 8 27.6988 13.0811 8.0479 0.000473858 -0.0192854 -0.00621796 0 0 0
5431 44 4 44.5117 13.2062 11.8531 -0.00122917 -0.00620022 0.000191879 0 0 0
5432 44 5 43.6532 12.0402 11.4258 0.00252608 -0.00334406 -0.00687634 0 0 0
5433 44 4 42.2128 12.541 11.186 0.000171515 0.000191193 0.00660559 0 0 0
5434 44 4 42.2113 13.5099 9.97904 -0.00533633 0.000953908 0.0035724 0 0 0
5507 44 5 43.6991 10.9132 12.4826 -0.00664229 0.00628283 0.00166645 0 0 0
5509 44 3 43.2149 9.55275 11.8494 -0.00406866 -0.00627336 -0.00748881 0 0 0
5570 44 8 45.5491 12.9036 11.838 -0.00346979 0.0047165 -0.0131298 0 0 0
5571 44 8 44.2167 13.5677 12.8036 -0.0134336 0.00867966 -0.020753 0 0 0
5572 44 8 43.9687 11.5954 10.4548 -0.0270406 -0.0126165 -0.00292809 0 0 0
5573 44 8 41.771 13.0284 12.0279 -0.0179244 -0.00842498 -0.00284697 0 0 0
5574 44 8 41.5443 11.7278 11.037 0.00241112 0.000613172 0.0201708 0 0 0
5576 44 8 42.341 12.9048 9.05229 0.00261595 0.00642586 0.0166156 0 0 0
5619 44 8 44.7513 10.807 12.7762 -0.017327 0.0164573 0.0113357 0 0 0
5621 44 8 41.8922 11.1654 13.5626 0.0120262 -0.0246975 -0.00496101 0 0 0
5623 44 8 43.7527 9.31277 10.9129 -0.0202115 0.00395673 -0.0126078 0 0 0
5624 44 8 42.1387 9.56704 11.6627 -0.00629255 -0.0242317 0.0227792 0 0 0
5625 44 8 43.3891 8.69373 12.5255 0.0171752 -0.00930381 -0.025042 0 0 0
2830 23 14 25.7778 14.7968 13.3076 0.00737006 0.00169863 0.00331652 0 0 0
2832 23 40 26.5233 14.9461 12.1502 0.00726032 0.00217 0.00427558 0 0 0
2833 23 14 26.7609 13.9 11.3092 -0.00311013 0.0059516 0.00428646 0 0 0
2863 23 41 27.0152 16.1678 11.7705 0.000612491 0.00352892 0.00702202 0 0 0
2902 23 42 26.768 16.8393 12.3673 -0.00252562 0.0118694 0.00340865 0 0 0
2905 23 8 24.8466 16.6877 13.4916 0.00484571 -0.00935792 -0.0138251 0 0 0
2839 23 4 27.5999 14.0374 10.0342 0.00532757 -0.0039206 0.00112504 0 0 0
2881 23 8 28.6541 13.8802 10.3305 -0.00399007 -0.00486619 0.0187377 0 0 0
2882 23 8 27.5376 15.0322 9.59711 0.0192774 -0.00626654 -0.0169731 0 0 0
3772 32 40 33.8962 19.5385 7.73753 -0.00416791 -0.00133223 -0.000454407 0 0 0
3782 32 41 33.202 18.4165 7.96226 0.00145232 -0.00422398 -0.00282323 0 0 0
3821 32 42 33.783 17.665 7.88244 -0.00293053 0.00467826 -0.00482577 0 0 0
3768 32 13 38.0097 19.6515 6.86627 0.0017643 0.00397263 0.00245271 0 0 0
3769 32 14 37.394 18.4066 7.09254 -0.00176908 0.0004414 0.00571406 0 0 0
3770 32 13 36.0369 18.3789 7.34774 -0.00676865 -0.00245786 -0.00389573 0 0 0
3771 32 14 35.2875 19.5787 7.43591 0.000106276 0.00545068 0.000446111 0 0 0
3778 32 4 38.3211 17.1908 6.99311 0.00130193 0.00217812 0.00141559 0 0 0
3779 32 3 37.5491 15.8564 7.03983 0.00503704 -0.00141937 -0.00788522 0 0 0
3807 32 15 35.5752 17.4856 7.56086 -0.0104376 0.00596672 0.0104111 0 0 0
3816 32 8 38.2118 15.0239 6.94341 0.00150678 0.00807002 -0.0129518 0 0 0
3818 32 8 37.0629 15.7744 7.95276 0.0155891 0.00227121 -0.00815384 0 0 0
3824 32 8 38.9885 17.2283 7.81346 -0.00801931 0.00796079 0.00975971 0 0 0
5420 44 9 47.4819 16.4467 11.9606 -0.000549655 -0.00249863 -0.00274809 0 0 0
5421 44 5 46.2402 15.5878 12.1579 -0.00736773 0.000355541 0.00161509 0 0 0
5422 44 14 45.4444 16.3579 13.2772 -0.0057039 -0.00684545 0.0159783 0 0 0
5423 44 14 45.3516 15.429 10.959 0.00417105 -0.00148084 0.00133064 0 0 0
5424 44 9 45.4838 16.3276 9.93995 0.00588038 0.0107941 -0.00357838 0 0 0
5425 44 4 46.5939 17.3454 9.85209 0.00531295 0.00316945 0.00569004 0 0 0
5426 44 10 47.65 17.2617 10.9144 0.00413646 0.00371635 -0.00424942 0 0 0
5427 44 4 44.6033 16.1926 8.67905 -0.000662 0.00234688 -0.0043966 0 0 0
5428 44 4 43.2426 15.6901 9.11185 0.00562276 0.00316871 0.00426089 0 0 0
5429 44 9 43.3766 14.488 10.0272 -0.00536407 0.000824305 -0.0024904 0 0 0
5430 44 14 44.4221 14.388 10.902 -0.000526597 -0.00686484 0.0026113 0 0 0
5436 44 13 44.0308 15.9274 13.4781 0.0114249 0.0218497 -0.00350655 0 0 0
5562 44 8 46.5682 14.654 12.5335 0.00154762 0.0136597 -0.00634876 0 0 0
5563 44 8 46.1849 18.3744 9.86386 0.0169987 -0.0169406 0.0143785 0 0 0
5564 44 8 47.0756 17.2605 8.87325 -0.0121258 0.0143648 0.0175778 0 0 0
5566 44 8 44.4749 17.1488 8.21219 -0.0212294 0.00310986 0.0192896 0 0 0
5567 44 8 45.1473 15.5102 8.07684 0.0183842 0.0135414 0.00798228 0 0 0
5568 44 8 42.5974 15.4025 8.20815 0.00607535 -0.00117261 0.0194197 0 0 0
5569 44 8 42.7534 16.5212 9.632 0.0256933 0.0093829 -0.00184247 0 0 0
5575 44 8 41.2673 14.0445 9.94717 0.00663417 0.000625113 0.0133084 0 0 0
5577 44 15 43.4759 15.7611 12.5652 0.0331476 -0.0317794 0.0308151 0 0 0
3773 32 13 33.2141 20.7351 7.80924 0.00144261 0.00327102 -0.00342769 0 0 0
3774 32 13 33.8314 21.9647 7.62291 0.000823353 0.00568391 0.00260053 0 0 0
3808 32 15 32.1535 20.6803 8.08715 0.0197697 -0.0175498 0.00454181 0 0 0
3809 32 15 33.2594 22.8107 7.78119 -0.00149866 -0.0266315 0.0202158 0 0 0
3764 32 13 35.8933 23.2707 7.07179 0.00246208 0.000932517 -0.00464523 0 0 0
3765 32 14 35.2197 22.017 7.28241 -0.000366806 -0.00532689 -0.0030729 0 0 0
3766 32 14 35.905 20.8304 7.20295 -0.00116124 0.00501405 -0.00123222 0 0 0
3767 32 14 37.2622 20.8382 6.9318 -0.00538385 -0.00351637 0.00460448 0 0 0
3804 32 8 39.9585 21.7868 7.26747 -0.00923917 0.005156 0.00483728 0 0 0
3805 32 15 35.23 24.038 7.16683 -0.00322371 -0.0292318 -0.0162219 0 0 0
3822 32 8 35.5222 25.8779 7.59621 -0.00206462 0.00745448 -0.0036154 0 0 0
3798 32 8 30.1324 29.3569 7.8138 0.00757092 0.00762423 -0.0038384 0 0 0
7016 50 14 34.02 31.6457 12.9524 0.00887993 -0.00983217 0.0099926 0 0 0
7017 50 14 33.8461 30.1296 12.7745 0.00215225 -0.00237361 -0.00118383 0 0 0
7129 50 15 33.0263 28.2656 13.6529 0.049043 0.00145177 0.0391442 0 0 0
3789 32 8 40.0744 30.3093 7.86051 -0.0185396 -0.00249442 -0.00837278 0 0 0
3791 32 8 37.9083 30.729 6.8642 0.00806723 0.00253616 0.00510592 0 0 0
3823 32 8 36.1277 29.68 7.54918 -0.0165164 -0.00881203 0.0116797 0 0 0
7019 50 13 34.5253 29.4468 11.5849 0.00411126 0.00764863 -0.00535248 0 0 0
7020 50 13 35.3878 30.302 10.6895 -0.0146906 0.0112015 0.00564663 0 0 0
7021 50 14 35.351 31.8097 10.7514 0.0190442 -0.00833397 0.0103946 0 0 0
7022 50 14 35.1281 32.3904 12.1693 -0.021674 0.00374896 -0.0096734 0 0 0
7023 50 14 34.9669 33.9274 12.1973 0.0215328 -0.0103835 0.011538 0 0 0
7027 50 13 36.2866 34.0681 10.0284 0.00722826 -0.00375298 0.0125372 0 0 0
7028 50 13 36.4239 32.5301 10.0005 -0.0247459 0.00402089 -0.00369183 0 0 0
7130 50 15 34.4116 28.3456 11.3712 0.0309489 0.0232603 -0.0123935 0 0 0
7131 50 15 35.7881 29.8056 9.75651 0.0227252 0.0107234 0.0431235 0 0 0
7133 50 15 36.6355 32.1957 8.96909 0.0109179 0.0260211 0.013266 0 0 0
7024 50 14 34.7443 34.4774 13.6216 -0.0231717 0.00520333 -0.0201625 0 0 0
7026 50 14 36.1397 34.644 11.4441 -0.018041 0.00823864 -0.0186945 0 0 0
7030 50 14 34.5633 36.0302 13.6954 0.0257445 -0.00610878 0.0100557 0 0 0
7031 50 14 35.9713 36.2145 11.4621 0.0155714 -0.00660821 0.0140535 0 0 0
7032 50 14 35.6149 36.754 12.8717 -0.0214009 -0.0142601 -0.00705198 0 0 0
7033 50 4 35.5103 38.3143 13.0718 -0.00515034 -0.00358036 0.0055065 0 0 0
7034 50 4 35.7523 38.9917 11.7037 0.00120534 -0.000680911 -0.00746112 0 0 0
7035 50 4 37.0326 38.4895 11.0564 0.00410634 0.00559684 -0.00630072 0 0 0
7036 50 43 37.0746 36.9953 10.8382 -0.00402076 -0.00401151 0.00258771 0 0 0
7037 50 44 37.9544 36.5514 10.1189 0.000560456 0.00142938 0.00164366 0 0 0
7132 50 15 37.0157 34.5791 9.48387 -0.0341643 0.00989003 0.00447231 0 0 0
7135 50 8 34.5275 38.6561 13.5141 0.00778294 0.0166013 0.00161641 0 0 0
7137 50 8 35.8249 40.0634 11.8027 0.0043194 0.00114949 -0.0189164 0 0 0
7138 50 8 34.8526 38.8227 11.1356 -0.00531497 0.00553188 0.0162395 0 0 0
7139 50 8 37.8462 38.7324 11.7493 -0.0148031 0.0298748 0.00595644 0 0 0
7140 50 8 37.2651 38.8715 10.1099 0.0123216 0.0194473 -0.0026677 0 0 0
2861 23 3 19.1109 6.07867 20.4956 -0.00208867 -0.00533687 -0.00181968 0 0 0
2889 23 15 19.8235 6.4117 18.1406 -0.0120102 0.0091613 0.00922727 0 0 0
2899 23 8 19.9806 5.39031 20.2737 -0.0156683 -0.00447889 -0.00979745 0 0 0
2900 23 8 18.3587 5.88588 19.6918 -0.00266385 -0.00951369 0.0118428 0 0 0
2903 23 42 20.1488 5.62883 16.3261 -0.00381808 -0.0337039 -0.00657353 0 0 0
1067 9 40 23.8307 0.235772 16.0763 -0.00788497 0.00106546 -0.00321743 0 0 0
1068 9 14 24.7358 1.27881 15.7918 0.00260118 0.00783757 0.00121786 0 0 0
1069 9 14 25.074 1.55004 14.4664 0.0079834 -0.00365006 -0.00431032 0 0 0
1071 9 43 26.0202 2.64288 14.1481 0.00237065 -0.00872134 0.0105455 0 0 0
1072 9 14 26.6164 3.44413 15.2423 0.0077746 0.00954413 -0.0103717 0 0 0
1073 9 14 26.3076 3.13209 16.5384 -0.000787137 0.0022383 0.00565827 0 0 0
1074 9 43 25.3488 2.05832 16.8769 -0.00441805 0.00536529 -0.0112134 0 0 0
1075 9 4 26.903 3.92859 17.6677 0.0018414 0.00797251 -0.00422735 0 0 0
1076 9 4 27.0218 5.3958 17.2747 -0.00649732 0.00118615 0.00495633 0 0 0
1106 9 44 25.1243 1.80702 18.0315 -0.000450741 0.00100976 -0.00264876 0 0 0
1121 9 8 26.3146 3.90117 18.567 0.00531017 0.0172542 -0.00881423 0 0 0
1124 9 8 26.0519 5.80522 17.1262 0.00260699 -0.00499707 -0.0154219 0 0 0
1144 9 8 20.7458 0.0744935 20.3596 0.00541145 -0.00378295 0.0216909 0 0 0
1164 9 42 24.0262 0.567317 17.9913 -0.0342817 -0.0059219 -0.0029321 0 0 0
2864 23 41 20.5745 6.02791 15.6137 0.0019786 -0.000521097 0.00528692 0 0 0
1077 9 14 27.7866 5.49586 15.9642 -0.00601736 -0.00682189 0.00682469 0 0 0
1078 9 59 27.5517 4.54704 14.9334 -0.0113949 -0.00373217 -0.000678267 0 0 0
1079 9 58 28.1876 4.59362 13.7363 -0.00184979 -0.00200271 0.000659718 0 0 0
1081 9 14 29.2331 6.63516 14.4182 -0.00322771 -0.00263325 -0.0115231 0 0 0
1082 9 14 28.6889 6.5651 15.6772 0.00482576 0.00368406 -0.000694681 0 0 0
1122 9 8 27.9035 3.45568 17.9393 -0.0115882 0.00337583 -0.000959115 0 0 0
1123 9 8 27.4874 5.89115 18.1353 -0.0174897 -0.0122989 0.00538708 0 0 0
2266 18 3 40.6823 1.18079 19.525 -0.00442454 0.0061438 0.00305818 0 1 0
2311 18 8 39.6632 0.781812 19.7447 0.012994 -0.00664058 -0.00154627 0 1 0
2312 18 8 40.6297 1.63468 18.5473 0.000159361 0.00712398 0.0144451 0 1 0
2313 18 8 40.9205 1.9496 20.2062 0.00195767 -0.00805765 0.000967984 0 1 0
2211 18 14 41.6856 0.069542 19.5843 -0.00522831 0.0072863 -0.00314703 0 1 0
2216 18 14 42.8573 0.101029 18.8226 0.00528488 0.00737979 0.00290974 0 1 0
2264 18 4 43.1478 1.29064 17.9335 0.0040561 0.00115559 -0.0063889 0 1 0
2265 18 3 42.6527 1.0829 16.521 0.00119617 0.00421795 0.00353751 0 1 0
2306 18 8 44.1686 1.51428 17.9925 -0.00417842 -0.00334191 0.0168727 0 1 0
2307 18 8 42.6493 2.13436 18.3845 0.000755855 -0.0203966 0.0100897 0 1 0
2308 18 8 41.5895 0.792301 16.4664 0.0131911 -0.0192715 0.000365308 0 1 0
2309 18 8 43.1639 0.176901 16.031 -0.0100446 0.0067995 0.00940607 0 1 0
2310 18 8 42.7989 1.97262 15.8659 -0.0132645 -0.0041127 0.00648733 0 1 0
2851 23 14 20.2078 8.09991 19.3694 0.00292314 0.00357768 0.00615771 0 0 0
2852 23 13 20.2848 7.40546 18.1515 -0.00786981 -0.00333451 -0.000264688 0 0 0
2825 23 14 22.9384 13.2796 17.8045 -0.00707628 0.00466517 -0.00239411 0 0 0
2826 23 14 22.4778 13.3071 19.1253 -0.00570187 -0.00298854 -0.00121915 0 0 0
2828 23 4 24.3715 13.4268 14.9116 -0.00165054 0.00641021 -0.00681073 0 0 0
2843 23 4 21.8322 12.0966 19.6477 -0.00127289 -0.000338946 -0.00208262 0 0 0
2844 23 14 21.895 11.2931 18.4086 -0.00836957 0.00635903 0.00034653 0 0 0
2845 23 14 22.546 11.9445 17.3795 -0.0039572 0.00629619 0.00595451 0 0 0
2846 23 13 22.6106 11.2049 16.1543 -0.00292583 -0.00218625 0.00179617 0 0 0
2847 23 14 22.0872 9.89704 16.0188 -0.00754406 -0.0026971 -0.00228016 0 0 0
2848 23 14 21.475 9.27416 17.0977 -0.00479644 0.00271817 -0.00450064 0 0 0
2849 23 14 21.3759 9.97096 18.327 -0.00324462 -0.000897433 0.000289294 0 0 0
2850 23 13 20.7583 9.37723 19.4214 0.00659125 0.00491821 0.00235535 0 0 0
2853 23 14 20.9227 7.946 17.0471 -0.00397769 -0.00398012 0.00406706 0 0 0
2854 23 40 21.0392 7.26702 15.7956 -0.0003111 -0.00169576 -0.00274182 0 0 0
2855 23 13 21.645 7.86084 14.6998 -3.80265e-05 -0.00153733 -0.00698444 0 0 0
2856 23 13 22.17 9.17227 14.8156 0.00141951 0.00529658 2.01641e-05 0 0 0
2875 23 8 24.6931 12.6083 15.5078 -0.0166193 0.0208121 0.0040924 0 0 0
2883 23 15 24.4546 10.9025 14.0981 0.00105562 -0.0114447 -0.0108473 0 0 0
2885 23 8 22.4018 11.6789 20.464 0.00496011 0.0177545 -0.00483552 0 0 0
2886 23 8 20.8306 12.1921 19.9643 0.00439236 -0.0161349 0.00680637 0 0 0
2887 23 15 22.985 11.5336 15.202 -0.0253791 -0.0270573 0.0124819 0 0 0
2888 23 15 20.6523 9.94546 20.3438 0.00182627 0.00309113 -0.0179779 0 0 0
2890 23 15 21.7854 7.31676 13.7999 0.0167451 -0.0140095 0.0141379 0 0 0
2891 23 15 22.6481 9.56173 13.9694 0.00608937 -0.0273147 0.0181927 0 0 0
2904 23 8 23.4132 13.2623 14.479 0.0191571 0.00687067 -0.0289202 0 0 0
1083 9 4 28.9238 7.60686 16.7752 -0.000958775 0.0034402 0.00231602 0 0 0
1084 9 4 30.1574 8.45633 16.4617 0.00332901 -0.00577751 0.000748339 0 0 0
1085 9 4 30.1388 8.95686 15.0109 0.00339472 0.00766122 0.000427303 0 0 0
1086 9 5 30.2271 7.72617 14.0897 -0.00486654 0.00481861 0.00492325 0 0 0
1125 9 8 28.0881 8.27033 16.8351 0.0110267 0.00823276 -0.0107421 0 0 0
1126 9 8 29.0596 7.17609 17.7432 -0.00852337 0.0134432 -0.000520271 0 0 0
1127 9 8 31.0603 7.84855 16.5777 -0.00856517 -0.0141566 -0.0177573 0 0 0
1128 9 8 30.2105 9.38416 17.0639 0.00956499 0.00311923 -0.0274007 0 0 0
1129 9 8 30.9749 9.65027 14.7286 -0.00148494 -0.00584598 -0.0156814 0 0 0
1130 9 8 29.1403 9.41691 14.7371 0.00249644 -0.0202395 -0.012815 0 0 0
1131 9 8 31.2393 7.33131 14.2539 -0.0201614 0.00978508 0.0177734 0 0 0
5508 44 3 42.9737 11.1749 13.8001 0.00261479 -0.00546252 0.00704064 0 0 0
5620 44 8 43.1713 10.4524 14.5931 0.0104241 0.0163677 0.019097 0 0 0
5622 44 8 43.2905 12.1342 14.1912 0.0033109 -0.00476334 -0.0120653 0 0 0
2963 24 3 3.99365 20.0121 19.9383 -0.00672224 0.00294146 -0.000164844 0 0 0
2991 24 15 6.39778 19.2576 20.4069 0.00135947 -0.00133926 0.0135432 0 0 0
3000 24 8 3.13287 20.423 19.5636 -0.00917759 -0.01208 0.00817353 0 0 0
3001 24 8 4.21083 19.2009 19.2611 -0.0109331 0.0194547 -0.00685137 0 0 0
2966 24 41 8.89222 18.5514 20.2452 -0.00516479 0.00232099 0.00084258 0 0 0
3005 24 42 8.16755 18.9437 19.894 -0.0162978 0.00865162 -0.0055116 0 0 0
2811 23 14 23.8473 17.8293 19.8286 -0.000240556 0.00220071 0.00575496 0 0 0
2812 23 14 23.2473 16.6842 20.2887 -9.54773e-06 0.00476569 0.00264659 0 0 0
2814 23 14 23.1752 15.5571 19.4708 -5.72455e-05 0.000680989 0.00351698 0 0 0
2815 23 14 23.7044 15.5647 18.1305 -0.000569848 -0.00499227 -0.00598522 0 0 0
2816 23 14 24.2829 16.7824 17.6898 -0.00380398 -0.00778814 -0.0177751 0 0 0
2817 23 14 24.3622 17.9147 18.5559 0.000431179 -0.00609123 -0.000215754 0 0 0
2818 23 4 25.0107 19.1912 18.0422 0.0021763 -0.00350745 -0.00543734 0 0 0
2819 23 4 24.8254 19.3759 16.5677 0.0039895 0.00842798 0.00467372 0 0 0
2820 23 4 25.4748 18.1927 15.8803 0.000452842 0.00279751 -0.000888227 0 0 0
2821 23 14 24.8556 16.8538 16.3258 -0.00809279 -0.000455349 0.00991592 0 0 0
2822 23 14 24.8618 15.8 15.493 -0.00231547 0.00141781 0.00291535 0 0 0
2823 23 14 24.3195 14.5787 15.9161 -0.00739718 -0.0104218 0.0172443 0 0 0
2824 23 14 23.6537 14.4415 17.259 0.00293408 0.00313378 -0.0149486 0 0 0
2827 23 40 22.565 14.3917 19.9268 -0.00350746 0.0004669 -0.0010074 0 0 0
2831 23 4 25.4866 16.0412 14.1323 -0.00470696 0.00420033 0.00734276 0 0 0
2869 23 8 24.6174 20.008 18.5579 0.0115022 -0.01849 0.000990796 0 0 0
2870 23 8 26.0422 19.1425 18.2816 -0.0112221 -0.0182735 0.00410893 0 0 0
2871 23 8 23.7502 19.4028 16.3192 0.0177876 -0.00469061 0.00952689 0 0 0
2872 23 8 25.2393 20.3373 16.149 -0.0139922 -0.014905 -0.00477565 0 0 0
2873 23 8 25.4673 18.3686 14.7774 0.0220718 0.0211621 0.00737169 0 0 0
2874 23 8 26.5556 18.1213 16.1858 -0.0128956 -0.025182 0.0155056 0 0 0
2876 23 8 26.4587 16.5559 14.3359 -0.00800562 0.00349329 0.0116559 0 0 0
5461 44 45 33.8257 19.3301 20.219 0.000214253 1.84915e-05 -0.00219015 0 0 0
5462 44 48 33.0712 18.1657 19.8887 -0.00632112 0.00371643 0.00497435 0 0 0
5463 44 5 33.6643 17.5225 18.5644 -0.00440835 0.000985204 -0.00172316 0 0 0
5465 44 4 32.5487 17.0842 17.6109 0.00091156 -0.00132999 -0.00373493 0 0 0
5466 44 4 31.3604 16.4638 18.4484 -0.00725173 -0.00353358 0.00333983 0 0 0
5467 44 66 30.6697 17.5519 19.2687 -0.000828819 -0.00234299 0.00172337 0 0 0
5468 44 5 31.6598 18.6655 19.7682 -0.00233396 0.00513679 0.0026946 0 0 0
5472 44 63 29.9168 16.9755 20.3552 0.00548555 -0.000561102 0.00563142 0 0 0
5582 44 8 34.2525 16.6428 18.8724 0.00314582 0.0216894 0.0116877 0 0 0
5583 44 8 34.022 19.3781 17.7347 -0.0201402 -0.0074544 0.00555363 0 0 0
5584 44 8 32.1084 17.9709 17.1285 -0.0158258 -0.00890013 0.0204611 0 0 0
5585 44 8 32.9721 16.4586 16.8633 0.0118947 0.0202349 -0.00224952 0 0 0
5586 44 8 31.791 15.7593 19.0882 -0.00509015 0.00454692 0.00459805 0 0 0
5587 44 8 30.6994 15.934 17.7492 0.0134559 -0.00594905 -0.00615636 0 0 0
5588 44 67 29.92 18.0316 18.6606 -0.01427 -0.0102994 0.0201199 0 0 0
5589 44 8 31.7051 19.4018 19.0678 -0.00230416 -0.000847263 0.0052008 0 0 0
5592 44 8 29.3357 20.0796 20.3712 -0.011614 0.0101922 0.0227303 0 0 0
5594 44 67 28.1094 18.0895 20.4512 -5.60199e-05 0.0142265 0.00159702 0 0 0
5438 44 62 41.0895 17.0204 16.1039 0.000242092 0.0180357 -0.00653769 0 0 0
5440 44 13 39.6355 17.4188 16.1274 0.00100686 -0.00712896 0.0107471 0 0 0
5441 44 14 39.1585 17.5938 17.5555 -0.000871913 0.025335 -0.0107248 0 0 0
5442 44 14 40.0703 18.4954 18.4225 0.00322621 -0.0285993 0.0101077 0 0 0
5444 44 14 39.5165 18.6404 19.8246 0.00298739 0.0131037 -0.00308409 0 0 0
5445 44 14 38.0979 19.0829 19.7961 0.0034503 -0.0224747 0.00663509 0 0 0
5446 44 14 37.1296 18.2452 18.8848 0.00526708 0.0255605 -0.015727 0 0 0