LAMMPS data file via write_data, version 16 Mar 2018, timestep = 50000

834 atoms
41 atom types
833 bonds
34 bond types
1728 angles
104 angle types
2871 dihedrals
174 dihedral types
0 impropers
5 improper types

-5.0000000000000000e+01 5.0000000000000000e+01 xlo xhi
-5.0000000000000000e+01 5.0000000000000000e+01 ylo yhi
-5.0000000000000000e+01 5.0000000000000000e+01 zlo zhi

Masses

1 1.008
2 15.999
3 12.011
4 12.011
5 12.011
6 12.011
7 12.011
8 1.008
9 12.011
10 12.011
11 12.011
12 1.008
13 12.011
14 12.011
15 1.008
16 12.011
17 15.999
18 14.007
19 14.007
20 14.007
21 1.008
22 1.008
23 12.011
24 15.999
25 15.999
26 1.008
27 12.011
28 15.999
29 12.011
30 12.011
31 12.011
32 12.011
33 12.011
34 14.007
35 12.011
36 12.011
37 12.011
38 12.011
39 1.008
40 22.99
41 35.453

Pair Coeffs # lj/cut/coul/long

1 0 0
2 0.1554 3.16557
3 0.066 3.5
4 0.066 3.5
5 0.066 3.5
6 0.066 3.5
7 0.066 3.5
8 0.03 2.5
9 0.076 3.55
10 0.076 3.55
11 0.076 3.55
12 0.03 2.42
13 0.07 3.55
14 0.07 3.55
15 0.03 2.42
16 0.105 3.75
17 0.21 2.96
18 0.17 3.25
19 0.17 3.25
20 0.17 3.25
21 0 0
22 0 0
23 0.105 3.75
24 0.21 2.96
25 0.17 3
26 0 0
27 0.105 3.75
28 0.21 2.96
29 0.066 3.5
30 0.066 3.5
31 0.066 3.5
32 0.066 3.5
33 0.076 3.55
34 0.17 3.25
35 0.066 3.5
36 0.066 3.5
37 0.066 3.5
38 0.066 3.5
39 0.03 2.5
40 0.0005 4.07
41 0.71 4.02

Bond Coeffs # harmonic

1 350 1.51
2 570 1.229
3 450 1.364
4 317 1.522
5 300 1.79
6 490 1.335
7 340 1.09
8 410 1.444
9 400 1.49
10 656 1.25
11 553 0.945
12 320 1.41
13 400 1.38
14 450 1.37
15 450 1.364
16 268 1.529
17 245 1.781
18 337 1.449
19 340 1.09
20 317 1.51
21 317 1.51
22 367 1.471
23 300 1.725
24 300 1.725
25 434 1.01
26 427 1.381
27 600 1
28 434 1.01
29 340 1.08
30 549 1.34
31 427 1.433
32 469 1.4
33 367 1.08
34 400 1.45

Angle Coeffs # harmonic

1 80 121.4
2 80 126
3 80 121
4 70 108
5 70 116
6 80 117.2
7 80 120.4
8 75 109
9 75 119
10 70 114.2
11 70 116.6
12 70 116.6
13 80 122.9
14 35 115
15 35 115
16 35 123
17 40 114
18 40 115
19 70 115.5
20 80 125.3
21 35 115
22 70 115.5
23 70 116
24 70 120
25 80 120.4
26 85 120
27 70 117
28 70 117
29 80 126
30 80 126
31 35 113
32 55 108.5
33 49 105.4
34 35 109
35 35 113
36 63 111.1
37 50 109.5
38 58.35 112.7
39 63 111.1
40 69 109.8
41 69 109.8
42 78 111.7
43 63 110.1
44 80 109.7
45 33 107.8
46 35 109.5
47 35 109.5
48 35 109.5
49 37.5 110.7
50 51 107.6
51 35 109.5
52 63 111.1
53 63 112.4
54 35 109.5
55 40 109.5
56 40 109.5
57 50 109.5
58 63 112
59 63 114
60 35 109.5
61 80 111.2
62 80 111.2
63 70 126.4
64 46 115.7
65 50 118
66 50 121.9
67 35 110.2
68 35 119.8
69 35 120
70 38 118.4
71 35 119.8
72 50 118
73 50 121.9
74 70 118
75 75 109.47
76 70 119.7
77 70 130
78 35 117
79 35 117
80 35 119.7
81 60 114
82 35 120
83 70 123
84 70 124
85 75 121.5
86 85 120.7
87 35 123.3
88 85 117
89 85 119.7
90 70 119.7
91 63 120
92 70 120
93 70 120
94 70 120
95 70 124
96 75 120
97 85 120
98 35 119.1
99 35 120
100 35 120
101 70 120
102 50 113
103 43.6 109.5
104 55 114

Dihedral Coeffs # opls

1 1.6 3.2 0 0
2 0 0.5 0 0
3 0 0 0 0
4 0 0 0 0
5 0.7 -1.5 0 0
6 -0.5 0.2 0 0
7 0.8 -0.76 0 0
8 -0.9 0.3 0 0
9 0 0 0.3 0
10 3 5.5 0 0
11 0 5 0 0
12 1.5 5.5 0 0
13 -2 5 0 0
14 1.5 5.5 0 0
15 4 5 0 0
16 0 0 0.085 0
17 0 0 0 0
18 0 0 0 0
19 -0.65 0 0 0
20 0 0 0 0
21 0 0 0 0
22 0 0.546 0 0
23 0 1.412 0 0
24 0 0 0 0
25 1.454 -0.144 -0.775 0
26 0 0 0.275 0
27 0 0 0 0
28 0 0 0.36 0
29 1.173 0.189 -1.2 0
30 0.65 0 0 0
31 1.816 1.222 1.581 0
32 0 0 0 0
33 0 0 0 0
34 0 0 0.36 0
35 0 0 0.275 0
36 0 0.82 0 0
37 0 0 0 0
38 0.4 4.9 0 0
39 0 4.9 0 0
40 0 6.603 0 0
41 0 6.089 0 0
42 0 4.9 0 0
43 0 6.089 0 0
44 0 6.089 0 0
45 2.3 6.089 0 0
46 0 4.9 0 0
47 4.542 6.603 1.045 0
48 2.3 6.089 0 0
49 0 4.9 0 0
50 2.3 6.089 0 0
51 2.3 6.089 0 0
52 4.6 0 0 0
53 0 4.9 0 0
54 2.3 6.089 0 0
55 0 4.9 0 0
56 0 4.9 0 0
57 0 4.9 0 0
58 2.3 6.089 0 0
59 0.9 0.23 -0.505 0
60 0 0 0 0
61 2.5 6 0 0
62 3.2 -3 0 0
63 0 0 0 0
64 2 0 0 0
65 0 2.1 0 0
66 0 2.1 0 0
67 0 0.2 0 0
68 0 1.1 0 0
69 0 0.2 0 0
70 -0.356 -0.174 0.492 0
71 0 0 0.352 0
72 -0.9 0 0 0
73 -0.9 0 0 0
74 5.519 -6.7 0.581 0
75 2.722 -5.154 0 0
76 0 1.682 0 0
77 0 1.682 0 0
78 -4.344 -1.714 0 0
79 1.711 -0.5 0.663 0
80 1.428 0.086 0.029 0
81 -0.55 0 1 0
82 -6.18 0 0 0
83 -2.06 -0.313 0.315 0
84 -9 2 0.8 0
85 0 0 -0.1 0
86 -1.697 -0.456 0.585 0
87 9.508 0 0 0
88 -1.552 0 0 0
89 6.28 -1.467 2.03 0
90 0 0 0.468 0
91 1.3 -0.05 0.2 0
92 0 0 0.4 0
93 0.845 -0.962 0.713 0
94 0 0 0.3 0
95 2.732 -0.229 0.485 0
96 -0.25 0 0 0
97 0 0 0.4 0
98 0 0 0.464 0
99 0.845 -0.962 0.713 0
100 0 0 0.3 0
101 0 0 0.366 0
102 0 0 0.462 0
103 0 0 0.384 0
104 1 0 0 0
105 0 0 0 0
106 -2.365 0.912 -0.85 0
107 -1.737 1.251 -3.501 0
108 0 0 0 0
109 0 0.462 0 0
110 4.753 -0.734 0 0
111 0 0 0 0
112 0 0 0 0
113 0 0 0 0
114 0 0 0 0
115 0 0 0 0
116 1.711 -0.5 0.663 0
117 0 0 0.468 0
118 0.5 0 0 0
119 2.817 -0.169 0.543 0
120 0.346 0.405 -0.904 0
121 0 0 0.3 0
122 0 0 0.318 0
123 0 0 -0.372 0
124 0 -8 0 0
125 0 -8 0 0
126 0 0 0 0
127 0 0 0 0
128 0 -0.4 0 0
129 0 0 0 0
130 1.438 -0.124 0.264 0
131 0 0 0.347 0
132 0 0 0.302 0
133 0 0 0.261 0
134 0 0 0.462 0
135 0 2.1 0 0
136 0 2.1 0 0
137 0 2.1 0 0
138 0 2.1 0 0
139 0 -8 0 0
140 0 -8 0 0
141 0 14 0 0
142 0 14 0 0
143 0 14 0 0
144 0 14 0 0
145 0 14 0 0
146 0 14 0 0
147 0 14 0 0
148 -1.6 14 0 0
149 0 14 0 0
150 0 14 0 0
151 0 14 0 0
152 0.205 -0.531 0 0
153 0 0 -0.372 0
154 1.241 3.353 -0.286 0
155 0 7.25 0 0
156 0 7.25 0 0
157 0 7.25 0 0
158 0 7.25 0 0
159 0 7.25 0 0
160 0 7.25 0 0
161 0 7.25 0 0
162 0 7.25 0 0
163 0 7.25 0 0
164 0 7.25 0 0
165 0 7.25 0 0
166 0 7.25 0 0
167 0 7.25 0 0
168 0 0 0 0
169 1.816 1.222 1.581 0
170 0 0.82 0 0
171 1 0 0 0
172 6.28 -1.467 2.03 0
173 1.438 -0.124 0.264 0
174 1.3 -0.05 0.2 0

Improper Coeffs # harmonic

1 10.5 0
2 10.5 0
3 1 0
4 15 0
5 1.1 0

Atoms # full

675 1 39 1.0000000000000001e-01 -1.9580282492024528e+00 -1.0578577853720722e+01 -4.4404391916992880e+00 0 0 0
680 1 39 1.0000000000000001e-01 -2.7048745626441066e+00 -1.1947073394327953e+01 -2.5311445614818724e+00 0 0 0
678 1 39 1.0000000000000001e-01 -4.2685253824052447e+00 -1.0182695078403531e+01 -4.0393408339140660e+00 0 0 0
668 1 39 1.0000000000000001e-01 -3.9415599021215528e+00 -1.1321703887640767e+01 -1.3864755550138967e+00 0 0 0
679 1 39 1.0000000000000001e-01 -4.2366303436637613e+00 -8.4740185584945209e+00 -3.4556252096515148e+00 0 0 0
673 1 35 -5.0000000000000003e-02 -4.1617707719876593e+00 -9.5708886696721294e+00 -3.1454777105957952e+00 0 0 0
677 1 39 1.0000000000000001e-01 -5.0260656366997862e+00 -9.9164258665512897e+00 -2.5235886755689765e+00 0 0 0
667 1 34 0.0000000000000000e+00 -2.8291376492039637e+00 -9.8804939846809159e+00 -2.5356943297246062e+00 0 0 0
664 1 36 5.0000000000000003e-02 -2.9155523534282217e+00 -1.1130068280707837e+01 -1.8041813331984282e+00 0 0 0
665 1 36 5.0000000000000003e-02 -2.5705844521705976e+00 -8.9188292987986895e+00 -1.4208367988021586e+00 0 0 0
681 1 39 1.0000000000000001e-01 -3.5282311333113561e+00 -8.6777817072480907e+00 -9.3154785223895842e-01 0 0 0
672 1 35 -5.0000000000000003e-02 -1.7570495918249018e+00 -9.8799247268265837e+00 -3.5787162183811727e+00 0 0 0
669 1 39 1.0000000000000001e-01 -2.1242329071059691e+00 -7.9274946394600203e+00 -1.6651261681173026e+00 0 0 0
674 1 39 1.0000000000000001e-01 -1.7876538681719132e+00 -8.8489899933383303e+00 -3.9737641197206610e+00 0 0 0
682 1 8 5.9999999999999998e-02 -8.4657585382360589e-01 -1.1235472123036093e+01 -1.2232800288402896e+00 0 0 0
660 1 5 -5.9999999999999998e-02 -1.8228209895366478e+00 -1.1031540933960081e+01 -7.3705911731900808e-01 0 0 0
676 1 39 1.0000000000000001e-01 -7.0254423104137420e-01 -1.0027671160135167e+01 -3.2722149399654179e+00 0 0 0
696 1 8 5.9999999999999998e-02 -3.1202115138257431e+00 -1.3420591003447301e+01 -8.1370005433942783e-01 0 0 0
27 1 41 -1.0000000000000000e+00 -3.7282542995494374e+00 -4.3270450421684070e-01 -6.6818305987654381e-01 0 0 0
663 1 5 -5.9999999999999998e-02 -1.8186053448247606e+00 -9.6061815815583635e+00 -2.2788424242652661e-01 0 0 0
670 1 8 5.9999999999999998e-02 -3.5177358290577670e-01 -7.9060323780370574e+00 -6.0122517160057044e-02 0 0 0
707 1 8 5.9999999999999998e-02 -4.3253734261019874e+00 -1.5395830365366143e+01 -1.7518237530378114e-01 0 0 0
706 1 39 1.0000000000000001e-01 -1.3031887138761342e+00 -1.5503630714737005e+01 -9.8489060131300536e-03 0 0 0
731 1 39 1.0000000000000001e-01 -8.3012582346798744e+00 -1.6795008409246165e+01 4.7656845837361113e+00 0 0 0
733 1 8 5.9999999999999998e-02 -7.8566710700197673e+00 -1.5138257610410870e+01 3.2321031482705642e+00 0 0 0
16 1 41 -1.0000000000000000e+00 -4.1898087032583851e+00 -1.9041683536884346e+01 4.2256291840907858e+00 0 0 0
713 1 5 -5.9999999999999998e-02 -6.9401358982639572e+00 -1.5444172155272559e+01 3.7394250925429580e+00 0 0 0
687 1 8 5.9999999999999998e-02 -6.2405103931851231e+00 -1.5298999396616114e+01 9.2519716552632758e-01 0 0 0
716 1 4 -1.2000000000000000e-01 -5.7412795581350498e+00 -1.5909900826826163e+01 2.8545256827759808e+00 0 0 0
720 1 8 5.9999999999999998e-02 -5.8636449692620634e+00 -1.6944215701934663e+01 2.6054833350424600e+00 0 0 0
684 1 4 -1.2000000000000000e-01 -5.3822393435743212e+00 -1.5146136910918642e+01 1.6066893898775139e+00 0 0 0
685 1 5 -5.9999999999999998e-02 -4.0772646521563738e+00 -1.5472985194858181e+01 8.7379873352915349e-01 0 0 0
282 1 8 5.9999999999999998e-02 -1.8086080025843863e+00 -6.0650367766724178e-01 3.6620896595701131e+00 0 0 0
721 1 8 5.9999999999999998e-02 -4.8327142645722310e+00 -1.6002153912629364e+01 3.4606611583401721e+00 0 0 0
689 1 36 5.0000000000000003e-02 -3.3731891104453138e+00 -1.6861972422022433e+01 1.0355942829146880e+00 0 0 0
705 1 39 1.0000000000000001e-01 -3.2973809285163393e+00 -1.7243758729158895e+01 1.6793874464838564e-02 0 0 0
693 1 39 1.0000000000000001e-01 -3.9758207061877737e+00 -1.7677799007457217e+01 1.5198516164339722e+00 0 0 0
715 1 36 5.0000000000000003e-02 -7.2719494988425009e+00 -1.6515980385805999e+01 4.8734228776077462e+00 0 0 0
719 1 39 1.0000000000000001e-01 -6.8234497200889308e+00 -1.7491782931313772e+01 4.7913450263618333e+00 0 0 0
703 1 39 1.0000000000000001e-01 -2.6359784995316260e+00 -1.5734963498004710e+01 3.4808601826320480e+00 0 0 0
725 1 39 1.0000000000000001e-01 -5.0302577848826200e+00 -1.6266647489552284e+01 5.7793794259019906e+00 0 0 0
717 1 34 0.0000000000000000e+00 -7.0159702447477921e+00 -1.5882316430819971e+01 6.1839375487370685e+00 0 0 0
690 1 36 5.0000000000000003e-02 -1.6572166185827679e+00 -1.5373107599192439e+01 9.9760503207517026e-01 0 0 0
692 1 34 0.0000000000000000e+00 -2.0360327174195691e+00 -1.6676104900160912e+01 1.5901972817242576e+00 0 0 0
722 1 35 -5.0000000000000003e-02 -5.7398430455264702e+00 -1.6372893112118973e+01 6.6168062132034935e+00 0 0 0
698 1 35 -5.0000000000000003e-02 -1.9255633434569908e+00 -1.6460502304675561e+01 3.0626925373767975e+00 0 0 0
704 1 39 1.0000000000000001e-01 -1.9893373022130574e+00 -1.7330954744879463e+01 3.6843595377080196e+00 0 0 0
127 1 39 1.0000000000000001e-01 -6.2968181566254184e+00 -4.6452530786311991e-01 6.4100858264923877e-01 0 0 0
702 1 39 1.0000000000000001e-01 -9.6082383130467586e-01 -1.5984284182629947e+01 3.3276178873842301e+00 0 0 0
714 1 36 5.0000000000000003e-02 -6.9824491575417547e+00 -1.4389722314829884e+01 6.0063236752777449e+00 0 0 0
697 1 35 -5.0000000000000003e-02 -1.1245763328018623e+00 -1.7864368722893115e+01 1.3603732554410077e+00 0 0 0
726 1 39 1.0000000000000001e-01 -5.6864644693936031e+00 -1.7426158198851301e+01 6.9176591136540475e+00 0 0 0
699 1 39 1.0000000000000001e-01 -1.5271313307444119e+00 -1.8759496316875758e+01 1.7605348712409639e+00 0 0 0
694 1 39 1.0000000000000001e-01 -9.0322721108597892e-01 -1.4764764057573817e+01 1.5292636810256335e+00 0 0 0
700 1 39 1.0000000000000001e-01 -1.0110965320502654e+00 -1.7964505048025401e+01 2.8734671358115343e-01 0 0 0
724 1 39 1.0000000000000001e-01 -5.2807776295650823e+00 -1.5814255775232816e+01 7.4325941196821788e+00 0 0 0
2 1 41 -1.0000000000000000e+00 -1.0618900209101112e+01 -1.3984857125441790e+01 5.9624017715959745e+00 0 0 0
751 1 39 1.0000000000000001e-01 -9.8164270890697782e+00 -1.1312530192866095e+01 2.7408500548883272e+00 0 0 0
712 1 8 5.9999999999999998e-02 -7.9930237880323034e+00 -1.2538128413827939e+01 4.2456440341609394e+00 0 0 0
750 1 39 1.0000000000000001e-01 -1.0956956761806135e+01 -1.0089290608336142e+01 2.9621146983027207e+00 0 0 0
739 1 36 5.0000000000000003e-02 -9.0359774382389091e+00 -9.9780490020272179e+00 5.0032790437247163e+00 0 0 0
743 1 39 1.0000000000000001e-01 -9.7851789240782843e+00 -9.3746783950565575e+00 5.4896655728929877e+00 0 0 0
755 1 39 1.0000000000000001e-01 -9.3985608290137321e+00 -1.1020926733074994e+01 5.0110843385384705e+00 0 0 0
754 1 39 1.0000000000000001e-01 -1.0311152374839502e+01 -7.8688926074955834e+00 3.8209199631896165e+00 0 0 0
747 1 35 -5.0000000000000003e-02 -9.9266430887070438e+00 -1.0231286438977580e+01 2.6990371108891593e+00 0 0 0
742 1 34 0.0000000000000000e+00 -8.9279361267161779e+00 -9.5146497559226972e+00 3.6224478303575647e+00 0 0 0
748 1 35 -5.0000000000000003e-02 -9.2499855300446328e+00 -8.0803377884499614e+00 3.6633058147158115e+00 0 0 0
749 1 39 1.0000000000000001e-01 -9.8339167617566208e+00 -9.9167899587732489e+00 1.6575761275601670e+00 0 0 0
752 1 39 1.0000000000000001e-01 -9.0157062221903868e+00 -7.6431754023212726e+00 2.6932267973572945e+00 0 0 0
734 1 4 -1.2000000000000000e-01 -7.5542779656976631e+00 -1.0837934068218624e+01 6.8694152800020101e+00 0 0 0
735 1 5 -5.9999999999999998e-02 -7.6537796542235990e+00 -9.9700552810260632e+00 5.6125221156074927e+00 0 0 0
736 1 8 5.9999999999999998e-02 -7.7090312563016621e+00 -1.1894166544680806e+01 6.6259623230109330e+00 0 0 0
753 1 39 1.0000000000000001e-01 -8.6200882800621574e+00 -7.6320923490053376e+00 4.4147988669306386e+00 0 0 0
757 1 8 5.9999999999999998e-02 -7.5242021586608931e+00 -8.9069087649228642e+00 5.9337040102186007e+00 0 0 0
740 1 36 5.0000000000000003e-02 -7.5164300972193052e+00 -9.7804760948311564e+00 3.2288979789391474e+00 0 0 0
744 1 39 1.0000000000000001e-01 -7.5311044063279420e+00 -1.0691792563559748e+01 2.6174550572546451e+00 0 0 0
756 1 39 1.0000000000000001e-01 -6.9695062287745131e+00 -9.0166858221340593e+00 2.6821213703160645e+00 0 0 0
718 1 39 1.0000000000000001e-01 -7.9653310461792985e+00 -1.4016090371898139e+01 6.1537253638357274e+00 0 0 0
6 1 41 -1.0000000000000000e+00 -1.0552131873219608e+01 -7.3094291688598512e+00 7.3818322666197682e+00 0 0 0
738 1 5 -5.9999999999999998e-02 -6.6833267694195699e+00 -1.0176934906029141e+01 4.4558010231532608e+00 0 0 0
686 1 8 5.9999999999999998e-02 -5.4208676969071545e+00 -1.4090590587272047e+01 1.8320288525739790e+00 0 0 0
758 1 8 5.9999999999999998e-02 -5.8698663259874175e+00 -9.4443646422063274e+00 4.5512538016755970e+00 0 0 0
711 1 8 5.9999999999999998e-02 -6.9071760436194252e+00 -1.2798478234971840e+01 3.0250549009267567e+00 0 0 0
688 1 5 -5.9999999999999998e-02 -2.9026632204412901e+00 -1.4496981984096511e+01 1.0872036567043912e+00 0 0 0
710 1 5 -5.9999999999999998e-02 -6.5558671771761317e+00 -1.4211746904352950e+01 4.6042950633412065e+00 0 0 0
708 1 8 5.9999999999999998e-02 -2.9204707090466164e+00 -1.4122022867776163e+01 2.0903950072213870e+00 0 0 0
732 1 8 5.9999999999999998e-02 -5.4772065525426976e+00 -1.4234537668144110e+01 4.6962091282534875e+00 0 0 0
691 1 4 -1.2000000000000000e-01 -3.0344830998034631e+00 -1.3177818843628023e+01 2.5638046522208019e-01 0 0 0
709 1 4 -1.2000000000000000e-01 -6.9360948360778272e+00 -1.2776043111887896e+01 4.1183581121950192e+00 0 0 0
659 1 4 -1.2000000000000000e-01 -1.8840347459169515e+00 -1.2049889122178499e+01 3.8246023173891314e-01 0 0 0
662 1 8 5.9999999999999998e-02 -9.0724592998498088e-01 -1.2491071692891341e+01 5.2048597413370767e-01 0 0 0
745 1 8 5.9999999999999998e-02 -5.1310296667203632e+00 -1.1576838943584921e+01 3.9149438049744338e+00 0 0 0
741 1 4 -1.2000000000000000e-01 -6.0153083897354671e+00 -1.1608153885571072e+01 4.5713763372401823e+00 0 0 0
746 1 8 5.9999999999999998e-02 -5.5611590637881161e+00 -1.1799136536061708e+01 5.5165287834184529e+00 0 0 0
683 1 8 5.9999999999999998e-02 -2.4546804561813187e+00 -9.5213646206844391e+00 6.7891255891602675e-01 0 0 0
821 1 8 5.9999999999999998e-02 -4.6791157731841100e+00 -8.4788077691526862e+00 6.3999687954002145e+00 0 0 0
811 1 5 -5.9999999999999998e-02 -2.3450369667665973e+00 -9.6990162719029787e+00 5.8178890953525926e+00 0 0 0
833 1 8 5.9999999999999998e-02 -3.2187807642918349e+00 -9.9139462777292877e+00 5.2023711212836901e+00 0 0 0
636 1 8 5.9999999999999998e-02 -6.9331240051212428e-01 -1.0068977041647404e+01 1.9783398186011005e+00 0 0 0
661 1 8 5.9999999999999998e-02 -1.9916798927831290e+00 -1.1640550813099917e+01 1.3682966856119134e+00 0 0 0
831 1 39 1.0000000000000001e-01 -2.2289153532207697e+00 -1.1652337931233202e+01 5.3225440406497109e+00 0 0 0
815 1 36 5.0000000000000003e-02 -1.6517795410151588e+00 -1.1055366545532948e+01 5.9702039619275915e+00 0 0 0
819 1 39 1.0000000000000001e-01 -5.9553991682535645e-01 -1.1008399702371143e+01 5.5749020093085857e+00 0 0 0
666 1 4 -1.2000000000000000e-01 -4.5541140135152136e-01 -8.9719675244335519e+00 1.5228723647801923e-01 0 0 0
8 1 41 -1.0000000000000000e+00 -6.0650997000232465e+00 -1.0132854628218166e+01 2.2069461836721746e-01 0 0 0
813 1 8 5.9999999999999998e-02 -1.3163320096053690e+00 -8.7035311363033312e+00 4.2004798262669443e+00 0 0 0
730 1 39 1.0000000000000001e-01 -6.3177806213544070e+00 -1.3922892624392071e+01 6.7095391732932734e+00 0 0 0
810 1 3 -1.7999999999999999e-01 -1.6112084009063343e+00 -8.4825159985520155e+00 5.2360819769338658e+00 0 0 0
809 1 8 5.9999999999999998e-02 -2.2596503069055722e+00 -7.6332094621664925e+00 5.1370114001618949e+00 0 0 0
812 1 8 5.9999999999999998e-02 -7.2585030267849338e-01 -8.2016906177307636e+00 5.8075462862932561e+00 0 0 0
637 1 8 5.9999999999999998e-02 -3.3625335703832038e-01 -8.2627586298264237e+00 2.1114599255012507e+00 0 0 0
295 1 8 5.9999999999999998e-02 -1.8479374781223630e+00 -1.5671538400206905e-01 6.3403534068673535e+00 0 0 0
817 1 4 -1.2000000000000000e-01 -3.9708927517587624e+00 -8.4051802426025297e+00 7.2026506241413522e+00 0 0 0
822 1 8 5.9999999999999998e-02 -3.5941125248562367e+00 -7.3825245029620232e+00 7.0193241525483021e+00 0 0 0
803 1 39 1.0000000000000001e-01 -7.8365050674575780e+00 -6.1649175395346409e+00 6.8774875433454712e+00 0 0 0
804 1 39 1.0000000000000001e-01 -7.2879684537066574e+00 -4.4958139273512918e+00 6.8926557037789893e+00 0 0 0
129 1 39 1.0000000000000001e-01 -7.7557078105910113e+00 -5.5379063452256683e-02 1.4138120946678359e+00 0 0 0
294 1 39 1.0000000000000001e-01 -2.7914918326187660e-01 -3.7969058462188632e+00 6.6585407096028657e+00 0 0 0
125 1 39 1.0000000000000001e-01 -6.4737646314505461e+00 -1.6696785846974511e+00 3.0770202465939231e+00 0 0 0
281 1 39 1.0000000000000001e-01 -1.4543530068299624e+00 -1.6317389328079681e+00 8.1909387282181623e-01 0 0 0
272 1 35 -5.0000000000000003e-02 -2.4456259557485578e+00 -3.7479188313850202e+00 1.5610784349682993e+00 0 0 0
277 1 39 1.0000000000000001e-01 -4.3339565619127479e-01 -4.8943526022819359e+00 3.3383208426666529e+00 0 0 0
267 1 34 0.0000000000000000e+00 -1.2427558780178387e+00 -3.2315774048562060e+00 2.2835549541732623e+00 0 0 0
280 1 39 1.0000000000000001e-01 -2.7296666838145045e+00 -2.6901546398045131e+00 3.6860729947099133e+00 0 0 0
260 1 5 -5.9999999999999998e-02 -9.7933985656200717e-01 -1.3013227875284408e+00 3.7434903543619837e+00 0 0 0
276 1 39 1.0000000000000001e-01 -2.1579485728922791e+00 -4.1001457313586558e+00 5.7045065819856855e-01 0 0 0
268 1 39 1.0000000000000001e-01 -1.2872362188862252e+00 -3.3922236701827808e+00 4.3885276673453193e+00 0 0 0
291 1 4 -1.2000000000000000e-01 -1.0080558572156737e+00 -8.0245749906017227e-01 6.4155597633729284e+00 0 0 0
13 1 41 -1.0000000000000000e+00 -4.7263867425493258e+00 -3.5496971354512485e+00 5.6667854466635719e+00 0 0 0
264 1 36 5.0000000000000003e-02 -1.6147793455229855e+00 -2.6938360645849220e+00 3.6209141120679602e+00 0 0 0
126 1 39 1.0000000000000001e-01 -5.2437084215158665e+00 -9.5194679045711428e-01 4.0021885132333379e+00 0 0 0
273 1 35 -5.0000000000000003e-02 -2.0610109551459785e-01 -4.2692371407233187e+00 2.4728004147979714e+00 0 0 0
265 1 36 5.0000000000000003e-02 -6.8316049208151797e-01 -2.0969190765166950e+00 1.4308535817399861e+00 0 0 0
275 1 39 1.0000000000000001e-01 -2.8840370305082934e+00 -4.5097057499205544e+00 2.2264202368684005e+00 0 0 0
293 1 39 1.0000000000000001e-01 -9.7452580163837144e-01 -2.6409292219121627e+00 1.0637998261241526e+01 0 0 0
124 1 39 1.0000000000000001e-01 -4.9223135092452459e+00 -1.3416577545935475e+00 2.2500492691646712e+00 0 0 0
274 1 39 1.0000000000000001e-01 -3.2294793132621642e+00 -2.9904953930629583e+00 1.4281443530534428e+00 0 0 0
695 1 8 5.9999999999999998e-02 -3.9931037249713803e+00 -1.2782661780172958e+01 6.1018160625714868e-01 0 0 0
308 1 8 5.9999999999999998e-02 -2.2239452499953556e+00 -2.4799248170949717e+00 6.8253788440564156e+00 0 0 0
122 1 35 -5.0000000000000003e-02 -5.6735817422732806e+00 -9.4144459508479639e-01 2.9996134427081556e+00 0 0 0
728 1 39 1.0000000000000001e-01 -9.0435038207550207e+00 -1.5917865951708061e+01 6.9298897021523302e+00 0 0 0
779 1 39 1.0000000000000001e-01 -9.0982868998770741e+00 -1.5094036454604863e+01 1.1045462465528198e+01 0 0 0
723 1 35 -5.0000000000000003e-02 -8.0692392071640437e+00 -1.6291305168309322e+01 7.1691166407408042e+00 0 0 0
727 1 39 1.0000000000000001e-01 -8.1572336131321190e+00 -1.7369813269724443e+01 7.1953740238984043e+00 0 0 0
729 1 39 1.0000000000000001e-01 -7.8326723338674196e+00 -1.5811001830690206e+01 8.1189242342426766e+00 0 0 0
776 1 39 1.0000000000000001e-01 -1.1064068820072723e+01 -1.4083494156568202e+01 1.0592615312594978e+01 0 0 0
770 1 8 5.9999999999999998e-02 -8.8667318353625006e+00 -9.6012711855746478e+00 7.9394535278309082e+00 0 0 0
766 1 4 -1.2000000000000000e-01 -8.6667108157311166e+00 -1.0620261382818869e+01 7.8433254786634778e+00 0 0 0
771 1 8 5.9999999999999998e-02 -9.6703764071761373e+00 -1.0908043393393408e+01 7.5119256397445344e+00 0 0 0
808 1 8 5.9999999999999998e-02 -7.7203939136723641e+00 -8.1475319695638539e+00 8.3723798911627085e+00 0 0 0
774 1 39 1.0000000000000001e-01 -1.1348750918152152e+01 -1.2413832434563529e+01 1.1053601767211672e+01 0 0 0
775 1 39 1.0000000000000001e-01 -1.0835201550422651e+01 -1.3538072728285796e+01 1.2214816709992457e+01 0 0 0
772 1 35 -5.0000000000000003e-02 -1.0624307758188218e+01 -1.3238116055980642e+01 1.1161058870795248e+01 0 0 0
781 1 39 1.0000000000000001e-01 -9.9670833850147762e+00 -1.2687244989725436e+01 8.8713269825240584e+00 0 0 0
777 1 39 1.0000000000000001e-01 -8.1467265897042740e+00 -1.4154518582893887e+01 1.2230440433018334e+01 0 0 0
782 1 8 5.9999999999999998e-02 -9.9526113033886645e+00 -1.0219068363679703e+01 1.0268172046344461e+01 0 0 0
773 1 35 -5.0000000000000003e-02 -8.4953192933296702e+00 -1.4186528638088570e+01 1.1208965308998447e+01 0 0 0
760 1 5 -5.9999999999999998e-02 -8.9064158486558878e+00 -1.0472159873560024e+01 1.0466053651181632e+01 0 0 0
763 1 5 -5.9999999999999998e-02 -8.4182462586032027e+00 -1.1248498820162480e+01 9.2405564426046976e+00 0 0 0
768 1 39 1.0000000000000001e-01 -9.0592867899460838e+00 -1.1453497311539548e+01 1.2513262079924980e+01 0 0 0
764 1 36 5.0000000000000003e-02 -8.7303823619403040e+00 -1.1638421199904842e+01 1.1452926020382627e+01 0 0 0
780 1 39 1.0000000000000001e-01 -7.6510394554882710e+00 -1.1682792064264593e+01 1.1614294646610675e+01 0 0 0
767 1 34 0.0000000000000000e+00 -9.2147342927762299e+00 -1.2917907150761183e+01 1.0813928144426781e+01 0 0 0
759 1 4 -1.2000000000000000e-01 -8.2594426653642898e+00 -9.1702240487451672e+00 1.0878228525424962e+01 0 0 0
761 1 8 5.9999999999999998e-02 -8.9840454531035991e+00 -8.3606779831918985e+00 1.0703054044752864e+01 0 0 0
783 1 8 5.9999999999999998e-02 -7.3897126992823958e+00 -1.1480232392462495e+01 9.4102506658581646e+00 0 0 0
765 1 36 5.0000000000000003e-02 -9.0338569388921854e+00 -1.2680414054690148e+01 9.3637330698707864e+00 0 0 0
769 1 39 1.0000000000000001e-01 -8.4356114246534748e+00 -1.3470613142357870e+01 8.8329099833943214e+00 0 0 0
762 1 8 5.9999999999999998e-02 -8.2032207423101742e+00 -9.1786112594582345e+00 1.1960002633987404e+01 0 0 0
788 1 5 -5.9999999999999998e-02 -7.1357443531491231e+00 -7.6907255127537404e+00 9.1442129286305871e+00 0 0 0
778 1 39 1.0000000000000001e-01 -7.6267928882832292e+00 -1.4217243062434680e+01 1.0576081947600896e+01 0 0 0
737 1 8 5.9999999999999998e-02 -6.6154180844894288e+00 -1.0658362924569403e+01 7.3878165519541819e+00 0 0 0
791 1 4 -1.2000000000000000e-01 -6.9597802446341204e+00 -8.7296174592173017e+00 1.0282485501428406e+01 0 0 0
795 1 8 5.9999999999999998e-02 -6.3316442800284376e+00 -9.5940454137501998e+00 1.0151224472400877e+01 0 0 0
796 1 8 5.9999999999999998e-02 -6.3844545861412616e+00 -8.2285979137324432e+00 1.1054308915501492e+01 0 0 0
807 1 8 5.9999999999999998e-02 -6.1723675814786532e+00 -7.4644135313734195e+00 7.1932998053627362e+00 0 0 0
785 1 5 -5.9999999999999998e-02 -5.9249752897854560e+00 -7.3625606440214746e+00 8.3072961645063916e+00 0 0 0
787 1 8 5.9999999999999998e-02 -5.1037178075845056e+00 -9.4000879444434648e+00 8.6073278131443427e+00 0 0 0
814 1 5 -5.9999999999999998e-02 -2.8579714502219744e+00 -9.4258870763634857e+00 7.2164421757679245e+00 0 0 0
784 1 4 -1.2000000000000000e-01 -4.7280903341842873e+00 -8.3750814989713671e+00 8.5073886931565070e+00 0 0 0
826 1 39 1.0000000000000001e-01 -2.7373025714800820e+00 -1.3371803401225952e+01 7.1406336284114396e+00 0 0 0
820 1 39 1.0000000000000001e-01 -3.9172669554525990e+00 -1.1323748063677387e+01 7.4424090788003445e+00 0 0 0
818 1 34 0.0000000000000000e+00 -1.8096040755115010e+00 -1.1506549699724511e+01 7.3973424443801497e+00 0 0 0
816 1 36 5.0000000000000003e-02 -3.0457030721345206e+00 -1.0821900917914464e+01 7.8402654436397956e+00 0 0 0
823 1 35 -5.0000000000000003e-02 -1.8235016848009580e+00 -1.2982301039362879e+01 7.5422033948500200e+00 0 0 0
825 1 39 1.0000000000000001e-01 -9.9859141581886879e-01 -1.3443238984025605e+01 6.9840970184146700e+00 0 0 0
824 1 35 -5.0000000000000003e-02 -5.0233259353711646e-01 -1.0998072344009932e+01 8.0139064414591399e+00 0 0 0
832 1 39 1.0000000000000001e-01 -3.2135499658231175e+00 -1.0896200186811239e+01 8.8770360273460689e+00 0 0 0
827 1 39 1.0000000000000001e-01 -1.8560413762177483e+00 -1.3304496504681230e+01 8.5923792734422566e+00 0 0 0
14 1 41 -1.0000000000000000e+00 -4.9403836343291401e+00 -1.3167995933686703e+01 9.5739768132732230e+00 0 0 0
786 1 8 5.9999999999999998e-02 -4.0634756338869904e+00 -8.0663060043247192e+00 9.3437700605943288e+00 0 0 0
834 1 8 5.9999999999999998e-02 -2.1357789972608279e+00 -8.8529121155830754e+00 7.8174250236339269e+00 0 0 0
829 1 39 1.0000000000000001e-01 -6.0619230086012488e-01 -1.0247134496008831e+01 8.8191794547821907e+00 0 0 0
289 1 36 5.0000000000000003e-02 -5.6131305274363963e-01 -2.4272115400628573e+00 9.5994375974473165e+00 0 0 0
802 1 39 1.0000000000000001e-01 -8.7662465332048409e+00 -4.8820364892706216e+00 7.5729158976888371e+00 0 0 0
279 1 39 1.0000000000000001e-01 -9.9490203284619078e-02 -4.9671389506761052e+00 1.6169750259180238e+00 0 0 0
798 1 35 -5.0000000000000003e-02 -7.7465583845743176e+00 -5.2600268188984227e+00 7.4832646971195773e+00 0 0 0
806 1 39 1.0000000000000001e-01 -8.7574278791666718e+00 -6.2855586208389234e+00 9.6790547409097325e+00 0 0 0
792 1 34 0.0000000000000000e+00 -7.0621219836396776e+00 -5.3212238165858849e+00 8.8135260176651560e+00 0 0 0
790 1 36 5.0000000000000003e-02 -7.6838072152422239e+00 -6.3784790883559292e+00 9.6668004888023642e+00 0 0 0
799 1 39 1.0000000000000001e-01 -8.0055037796611224e+00 -3.6661548537190840e+00 9.4078908710889397e+00 0 0 0
794 1 39 1.0000000000000001e-01 -7.2230488014182317e+00 -6.2120319277547651e+00 1.0653714633341822e+01 0 0 0
290 1 36 5.0000000000000003e-02 -1.7521908130862998e-01 -3.0051961474303392e+00 7.4502011210091474e+00 0 0 0
328 1 39 1.0000000000000001e-01 -7.2265516140868460e+00 -1.3453706884258669e+00 9.7214724713967851e+00 0 0 0
323 1 35 -5.0000000000000003e-02 -7.1142824490647047e+00 -4.4061632903137965e-01 1.0297460954068214e+01 0 0 0
285 1 5 -5.9999999999999998e-02 -1.6621086868376536e+00 -1.6707144065128814e+00 8.7809369400975559e+00 0 0 0
23 1 41 -1.0000000000000000e+00 -3.9710801193773220e+00 -3.4590099579046401e+00 1.1335587276855794e+01 0 0 0
320 1 8 5.9999999999999998e-02 -2.3256047161251807e+00 -8.5440577824755071e-01 1.1217236041597999e+01 0 0 0
327 1 39 1.0000000000000001e-01 -6.8763451827853697e+00 -8.3440105430777622e-01 1.1289013911391404e+01 0 0 0
797 1 35 -5.0000000000000003e-02 -6.9321792808888718e+00 -3.9635591385527729e+00 9.3698138558790767e+00 0 0 0
800 1 39 1.0000000000000001e-01 -6.5707621587266525e+00 -3.9763222251883215e+00 1.0371500888471335e+01 0 0 0
801 1 39 1.0000000000000001e-01 -6.2982151608672057e+00 -3.2900532661663355e+00 8.7450181862005056e+00 0 0 0
307 1 8 5.9999999999999998e-02 -2.5881237066803715e+00 -2.2470675009022174e+00 8.9578210047252167e+00 0 0 0
288 1 5 -5.9999999999999998e-02 -1.3354643479487709e+00 -2.0011569323185707e+00 7.2876320968864565e+00 0 0 0
304 1 39 1.0000000000000001e-01 -1.0139345997425111e+00 -5.5409347871858801e+00 8.2085540586949755e+00 0 0 0
298 1 35 -5.0000000000000003e-02 -1.3374812575251969e+00 -4.6567425737373203e+00 8.7826177580343074e+00 0 0 0
284 1 4 -1.2000000000000000e-01 -1.7372568450195562e+00 -1.7628209969035943e-01 9.1886110401098193e+00 0 0 0
296 1 8 5.9999999999999998e-02 -3.5708601757988051e-01 -1.8475096112233161e-01 7.0007234114854278e+00 0 0 0
793 1 39 1.0000000000000001e-01 -5.2085743544589436e+00 -5.3240593842477910e+00 7.8386773560838217e+00 0 0 0
303 1 39 1.0000000000000001e-01 -1.5005215277699513e+00 -4.9553515730413746e+00 9.8114645382104069e+00 0 0 0
259 1 4 -1.2000000000000000e-01 -2.5992760774867896e-01 -1.1144962233904674e+00 5.0943313378363451e+00 0 0 0
331 1 39 1.0000000000000001e-01 -4.6261486305532635e+00 -1.0655757312029979e+00 9.7823514077436897e+00 0 0 0