ITEM: TIMESTEP
0
ITEM: NUMBER OF ATOMS
390
ITEM: BOX BOUNDS pp pp pp
0.0000000000000000e+00 1.0000000000000000e+02
0.0000000000000000e+00 1.0000000000000000e+02
0.0000000000000000e+00 1.0000000000000000e+02
ITEM: ATOMS id mol type x y z vx vy vz fx fy fz ix
28 1 14 0.297702 0.903183 0.358248 0 0 0 nan nan nan 0
29 1 14 1.70793 0.87642 0.254665 0 0 0 nan nan nan 0
31 1 43 2.48988 2.09731 0.231399 0 0 0 nan nan nan 0
32 1 14 1.77295 3.38682 0.314222 0 0 0 nan nan nan 0
33 1 14 0.394624 3.38984 0.399458 0 0 0 nan nan nan 0
38 1 59 2.49108 4.67954 0.302966 0 0 0 nan nan nan 0
39 1 58 3.79899 4.68389 0.596806 0 0 0 nan nan nan 0
40 1 59 4.47709 5.83401 0.520685 0 0 0 nan nan nan 0
41 1 14 3.86169 7.06256 0.198742 0 0 0 nan nan nan 0
49 1 14 5.92814 5.78055 0.777965 0 0 0 nan nan nan 0
50 1 13 6.50071 4.65418 1.38404 0 0 0 nan nan nan 0
67 1 44 3.75513 2.03075 0.121255 0 0 0 nan nan nan 0
94 1 15 5.84946 3.83155 1.67932 0 0 0 nan nan nan 0
123 1 42 3.96265 0.647719 0.147403 0 0 0 nan nan nan 0
158 2 14 0.297702 0.903183 0.358248 0 0 0 nan nan nan 0
159 2 14 1.70793 0.87642 0.254665 0 0 0 nan nan nan 0
161 2 43 2.48988 2.09731 0.231399 0 0 0 nan nan nan 0
162 2 14 1.77295 3.38682 0.314222 0 0 0 nan nan nan 0
163 2 14 0.394624 3.38984 0.399458 0 0 0 nan nan nan 0
168 2 59 2.49108 4.67954 0.302966 0 0 0 nan nan nan 0
169 2 58 3.79899 4.68389 0.596806 0 0 0 nan nan nan 0
170 2 59 4.47709 5.83401 0.520685 0 0 0 nan nan nan 0
171 2 14 3.86169 7.06256 0.198742 0 0 0 nan nan nan 0
179 2 14 5.92814 5.78055 0.777965 0 0 0 nan nan nan 0
180 2 13 6.50071 4.65418 1.38404 0 0 0 nan nan nan 0
197 2 44 3.75513 2.03075 0.121255 0 0 0 nan nan nan 0
224 2 15 5.84946 3.83155 1.67932 0 0 0 nan nan nan 0
253 2 42 3.96265 0.647719 0.147403 0 0 0 nan nan nan 0
288 3 14 0.297702 0.903183 0.358248 0 0 0 nan nan nan 0
289 3 14 1.70793 0.87642 0.254665 0 0 0 nan nan nan 0
291 3 43 2.48988 2.09731 0.231399 0 0 0 nan nan nan 0
292 3 14 1.77295 3.38682 0.314222 0 0 0 nan nan nan 0
293 3 14 0.394624 3.38984 0.399458 0 0 0 nan nan nan 0
298 3 59 2.49108 4.67954 0.302966 0 0 0 nan nan nan 0
299 3 58 3.79899 4.68389 0.596806 0 0 0 nan nan nan 0
300 3 59 4.47709 5.83401 0.520685 0 0 0 nan nan nan 0
301 3 14 3.86169 7.06256 0.198742 0 0 0 nan nan nan 0
309 3 14 5.92814 5.78055 0.777965 0 0 0 nan nan nan 0
310 3 13 6.50071 4.65418 1.38404 0 0 0 nan nan nan 0
327 3 44 3.75513 2.03075 0.121255 0 0 0 nan nan nan 0
354 3 15 5.84946 3.83155 1.67932 0 0 0 nan nan nan 0
383 3 42 3.96265 0.647719 0.147403 0 0 0 nan nan nan 0
48 1 14 6.75726 6.84115 0.356861 0 0 0 nan nan nan 0
51 1 13 7.87577 4.59771 1.57417 0 0 0 nan nan nan 0
52 1 14 8.71841 5.63913 1.15419 0 0 0 nan nan nan 0
53 1 14 8.15244 6.76868 0.525876 0 0 0 nan nan nan 0
69 1 3 10.2058 5.51829 1.37507 0 0 0 nan nan nan 0
95 1 15 8.32103 3.72158 2.05068 0 0 0 nan nan nan 0
128 1 8 10.7576 5.51968 0.420724 0 0 0 nan nan nan 0
129 1 8 10.4448 4.58422 1.9013 0 0 0 nan nan nan 0
130 1 8 10.597 6.3581 1.97137 0 0 0 nan nan nan 0
178 2 14 6.75726 6.84115 0.356861 0 0 0 nan nan nan 0
181 2 13 7.87577 4.59771 1.57417 0 0 0 nan nan nan 0
182 2 14 8.71841 5.63913 1.15419 0 0 0 nan nan nan 0
183 2 14 8.15244 6.76868 0.525876 0 0 0 nan nan nan 0
199 2 3 10.2058 5.51829 1.37507 0 0 0 nan nan nan 0
225 2 15 8.32103 3.72158 2.05068 0 0 0 nan nan nan 0
258 2 8 10.7576 5.51968 0.420724 0 0 0 nan nan nan 0
259 2 8 10.4448 4.58422 1.9013 0 0 0 nan nan nan 0
260 2 8 10.597 6.3581 1.97137 0 0 0 nan nan nan 0
308 3 14 6.75726 6.84115 0.356861 0 0 0 nan nan nan 0
311 3 13 7.87577 4.59771 1.57417 0 0 0 nan nan nan 0
312 3 14 8.71841 5.63913 1.15419 0 0 0 nan nan nan 0
313 3 14 8.15244 6.76868 0.525876 0 0 0 nan nan nan 0
329 3 3 10.2058 5.51829 1.37507 0 0 0 nan nan nan 0
355 3 15 8.32103 3.72158 2.05068 0 0 0 nan nan nan 0
388 3 8 10.7576 5.51968 0.420724 0 0 0 nan nan nan 0
389 3 8 10.4448 4.58422 1.9013 0 0 0 nan nan nan 0
390 3 8 10.597 6.3581 1.97137 0 0 0 nan nan nan 0
34 1 43 99.6127 2.16326 0.443608 0 0 0 nan nan nan -1
35 1 4 99.6489 4.6893 0.490516 0 0 0 nan nan nan -1
66 1 44 98.3366 2.22552 0.567954 0 0 0 nan nan nan -1
81 1 8 98.6 4.53271 0.208724 0 0 0 nan nan nan -1
82 1 8 99.6483 5.01864 1.54663 0 0 0 nan nan nan -1
124 1 42 98.0405 0.842695 0.562916 0 0 0 nan nan nan -1
164 2 43 99.6127 2.16326 0.443608 0 0 0 nan nan nan -1
165 2 4 99.6489 4.6893 0.490516 0 0 0 nan nan nan -1
196 2 44 98.3366 2.22552 0.567954 0 0 0 nan nan nan -1
211 2 8 98.6 4.53271 0.208724 0 0 0 nan nan nan -1
212 2 8 99.6483 5.01864 1.54663 0 0 0 nan nan nan -1
254 2 42 98.0405 0.842695 0.562916 0 0 0 nan nan nan -1
294 3 43 99.6127 2.16326 0.443608 0 0 0 nan nan nan -1
295 3 4 99.6489 4.6893 0.490516 0 0 0 nan nan nan -1
326 3 44 98.3366 2.22552 0.567954 0 0 0 nan nan nan -1
341 3 8 98.6 4.53271 0.208724 0 0 0 nan nan nan -1
342 3 8 99.6483 5.01864 1.54663 0 0 0 nan nan nan -1
384 3 42 98.0405 0.842695 0.562916 0 0 0 nan nan nan -1
46 1 5 4.71042 8.31282 0.200085 0 0 0 nan nan nan 0
86 1 8 0.809705 8.41392 0.10327 0 0 0 nan nan nan 0
87 1 8 2.5887 9.78949 1.00093 0 0 0 nan nan nan 0
91 1 8 4.82719 8.62127 1.25865 0 0 0 nan nan nan 0
176 2 5 4.71042 8.31282 0.200085 0 0 0 nan nan nan 0
216 2 8 0.809705 8.41392 0.10327 0 0 0 nan nan nan 0
217 2 8 2.5887 9.78949 1.00093 0 0 0 nan nan nan 0
221 2 8 4.82719 8.62127 1.25865 0 0 0 nan nan nan 0
306 3 5 4.71042 8.31282 0.200085 0 0 0 nan nan nan 0
346 3 8 0.809705 8.41392 0.10327 0 0 0 nan nan nan 0
347 3 8 2.5887 9.78949 1.00093 0 0 0 nan nan nan 0
351 3 8 4.82719 8.62127 1.25865 0 0 0 nan nan nan 0
68 1 3 9.02439 7.89423 0.0192485 0 0 0 nan nan nan 0
126 1 8 10.0887 7.63399 0.0474482 0 0 0 nan nan nan 0
127 1 8 8.88931 8.80782 0.623157 0 0 0 nan nan nan 0
198 2 3 9.02439 7.89423 0.0192485 0 0 0 nan nan nan 0
256 2 8 10.0887 7.63399 0.0474482 0 0 0 nan nan nan 0
257 2 8 8.88931 8.80782 0.623157 0 0 0 nan nan nan 0
328 3 3 9.02439 7.89423 0.0192485 0 0 0 nan nan nan 0
386 3 8 10.0887 7.63399 0.0474482 0 0 0 nan nan nan 0
387 3 8 8.88931 8.80782 0.623157 0 0 0 nan nan nan 0
36 1 4 0.320531 5.75197 99.6252 0 0 0 nan nan nan 0
37 1 14 1.78367 5.859 99.963 0 0 0 nan nan nan 0
42 1 14 2.48548 7.07524 99.9301 0 0 0 nan nan nan 0
84 1 8 0.21277 5.47512 98.5593 0 0 0 nan nan nan 0
166 2 4 0.320531 5.75197 99.6252 0 0 0 nan nan nan 0
167 2 14 1.78367 5.859 99.963 0 0 0 nan nan nan 0
172 2 14 2.48548 7.07524 99.9301 0 0 0 nan nan nan 0
214 2 8 0.21277 5.47512 98.5593 0 0 0 nan nan nan 0
296 3 4 0.320531 5.75197 99.6252 0 0 0 nan nan nan 0
297 3 14 1.78367 5.859 99.963 0 0 0 nan nan nan 0
302 3 14 2.48548 7.07524 99.9301 0 0 0 nan nan nan 0
344 3 8 0.21277 5.47512 98.5593 0 0 0 nan nan nan 0
96 1 8 91.3668 0.166565 99.4194 0 0 0 nan nan nan -1
100 1 8 90.4459 0.265351 97.0749 0 0 0 nan nan nan -1
106 1 8 93.3024 0.186455 99.0049 0 0 0 nan nan nan -1
226 2 8 91.3668 0.166565 99.4194 0 0 0 nan nan nan -1
230 2 8 90.4459 0.265351 97.0749 0 0 0 nan nan nan -1
236 2 8 93.3024 0.186455 99.0049 0 0 0 nan nan nan -1
356 3 8 91.3668 0.166565 99.4194 0 0 0 nan nan nan -1
360 3 8 90.4459 0.265351 97.0749 0 0 0 nan nan nan -1
366 3 8 93.3024 0.186455 99.0049 0 0 0 nan nan nan -1
83 1 8 99.8076 6.71358 99.7503 0 0 0 nan nan nan -1
213 2 8 99.8076 6.71358 99.7503 0 0 0 nan nan nan -1
343 3 8 99.8076 6.71358 99.7503 0 0 0 nan nan nan -1
43 1 4 1.77902 8.3681 99.5831 0 0 0 nan nan nan 0
44 1 4 2.59557 9.62297 99.9107 0 0 0 nan nan nan 0
45 1 4 4.04205 9.46173 99.4458 0 0 0 nan nan nan 0
47 1 4 6.11117 8.01428 99.6624 0 0 0 nan nan nan 0
85 1 8 1.53795 8.35613 98.5048 0 0 0 nan nan nan 0
88 1 8 2.1236 10.5027 99.4476 0 0 0 nan nan nan 0
89 1 8 4.61549 10.3897 99.5989 0 0 0 nan nan nan 0
90 1 8 4.06186 9.24026 98.3641 0 0 0 nan nan nan 0
92 1 8 6.03636 7.80303 98.5778 0 0 0 nan nan nan 0
173 2 4 1.77902 8.3681 99.5831 0 0 0 nan nan nan 0
174 2 4 2.59557 9.62297 99.9107 0 0 0 nan nan nan 0
175 2 4 4.04205 9.46173 99.4458 0 0 0 nan nan nan 0
177 2 4 6.11117 8.01428 99.6624 0 0 0 nan nan nan 0
215 2 8 1.53795 8.35613 98.5048 0 0 0 nan nan nan 0
218 2 8 2.1236 10.5027 99.4476 0 0 0 nan nan nan 0
219 2 8 4.61549 10.3897 99.5989 0 0 0 nan nan nan 0
220 2 8 4.06186 9.24026 98.3641 0 0 0 nan nan nan 0
222 2 8 6.03636 7.80303 98.5778 0 0 0 nan nan nan 0
303 3 4 1.77902 8.3681 99.5831 0 0 0 nan nan nan 0
304 3 4 2.59557 9.62297 99.9107 0 0 0 nan nan nan 0
305 3 4 4.04205 9.46173 99.4458 0 0 0 nan nan nan 0
307 3 4 6.11117 8.01428 99.6624 0 0 0 nan nan nan 0
345 3 8 1.53795 8.35613 98.5048 0 0 0 nan nan nan 0
348 3 8 2.1236 10.5027 99.4476 0 0 0 nan nan nan 0
349 3 8 4.61549 10.3897 99.5989 0 0 0 nan nan nan 0
350 3 8 4.06186 9.24026 98.3641 0 0 0 nan nan nan 0
352 3 8 6.03636 7.80303 98.5778 0 0 0 nan nan nan 0
93 1 8 6.72623 8.91967 99.7594 0 0 0 nan nan nan 0
125 1 8 8.76887 8.15948 98.982 0 0 0 nan nan nan 0
223 2 8 6.72623 8.91967 99.7594 0 0 0 nan nan nan 0
255 2 8 8.76887 8.15948 98.982 0 0 0 nan nan nan 0
353 3 8 6.72623 8.91967 99.7594 0 0 0 nan nan nan 0
385 3 8 8.76887 8.15948 98.982 0 0 0 nan nan nan 0
59 1 3 95.296 92.2111 1.68606 0 0 0 nan nan nan -1
60 1 3 98.1913 92.1129 1.42015 0 0 0 nan nan nan -1
110 1 8 95.8438 91.5801 2.39727 0 0 0 nan nan nan -1
111 1 8 95.0849 91.5968 0.792945 0 0 0 nan nan nan -1
112 1 8 94.3288 92.4556 2.14213 0 0 0 nan nan nan -1
113 1 8 99.0308 92.0643 0.716668 0 0 0 nan nan nan -1
114 1 8 97.5224 91.2729 1.20157 0 0 0 nan nan nan -1
115 1 8 98.616 91.9634 2.42523 0 0 0 nan nan nan -1
189 2 3 95.296 92.2111 1.68606 0 0 0 nan nan nan -1
190 2 3 98.1913 92.1129 1.42015 0 0 0 nan nan nan -1
240 2 8 95.8438 91.5801 2.39727 0 0 0 nan nan nan -1
241 2 8 95.0849 91.5968 0.792945 0 0 0 nan nan nan -1
242 2 8 94.3288 92.4556 2.14213 0 0 0 nan nan nan -1
243 2 8 99.0308 92.0643 0.716668 0 0 0 nan nan nan -1
244 2 8 97.5224 91.2729 1.20157 0 0 0 nan nan nan -1
245 2 8 98.616 91.9634 2.42523 0 0 0 nan nan nan -1
319 3 3 95.296 92.2111 1.68606 0 0 0 nan nan nan -1
320 3 3 98.1913 92.1129 1.42015 0 0 0 nan nan nan -1
370 3 8 95.8438 91.5801 2.39727 0 0 0 nan nan nan -1
371 3 8 95.0849 91.5968 0.792945 0 0 0 nan nan nan -1
372 3 8 94.3288 92.4556 2.14213 0 0 0 nan nan nan -1
373 3 8 99.0308 92.0643 0.716668 0 0 0 nan nan nan -1
374 3 8 97.5224 91.2729 1.20157 0 0 0 nan nan nan -1
375 3 8 98.616 91.9634 2.42523 0 0 0 nan nan nan -1
17 1 14 0.253003 95.943 0.5866 0 0 0 nan nan nan 0
19 1 14 1.62358 95.9447 0.165753 0 0 0 nan nan nan 0
21 1 14 1.62413 98.394 0.130681 0 0 0 nan nan nan 0
22 1 14 0.210682 98.4179 0.315731 0 0 0 nan nan nan 0
30 1 40 2.3708 99.6337 0.171895 0 0 0 nan nan nan 0
61 1 41 0.313387 93.769 1.64167 0 0 0 nan nan nan 0
64 1 41 3.69759 99.6108 0.166661 0 0 0 nan nan nan 0
79 1 8 3.23805 94.5954 0.539051 0 0 0 nan nan nan 0
116 1 42 1.20569 94.1023 1.82711 0 0 0 nan nan nan 0
147 2 14 0.253003 95.943 0.5866 0 0 0 nan nan nan 0
149 2 14 1.62358 95.9447 0.165753 0 0 0 nan nan nan 0
151 2 14 1.62413 98.394 0.130681 0 0 0 nan nan nan 0
152 2 14 0.210682 98.4179 0.315731 0 0 0 nan nan nan 0
160 2 40 2.3708 99.6337 0.171895 0 0 0 nan nan nan 0
191 2 41 0.313387 93.769 1.64167 0 0 0 nan nan nan 0
194 2 41 3.69759 99.6108 0.166661 0 0 0 nan nan nan 0
209 2 8 3.23805 94.5954 0.539051 0 0 0 nan nan nan 0
246 2 42 1.20569 94.1023 1.82711 0 0 0 nan nan nan 0
277 3 14 0.253003 95.943 0.5866 0 0 0 nan nan nan 0
279 3 14 1.62358 95.9447 0.165753 0 0 0 nan nan nan 0
281 3 14 1.62413 98.394 0.130681 0 0 0 nan nan nan 0
282 3 14 0.210682 98.4179 0.315731 0 0 0 nan nan nan 0
290 3 40 2.3708 99.6337 0.171895 0 0 0 nan nan nan 0
321 3 41 0.313387 93.769 1.64167 0 0 0 nan nan nan 0
324 3 41 3.69759 99.6108 0.166661 0 0 0 nan nan nan 0
339 3 8 3.23805 94.5954 0.539051 0 0 0 nan nan nan 0
376 3 42 1.20569 94.1023 1.82711 0 0 0 nan nan nan 0
2 1 14 91.7223 95.7195 0.207517 0 0 0 nan nan nan -1
3 1 14 93.1127 95.7927 0.42256 0 0 0 nan nan nan -1
58 1 3 90.9702 94.4496 0.537049 0 0 0 nan nan nan -1
103 1 8 88.9333 97.0243 0.21548 0 0 0 nan nan nan -1
107 1 8 91.4851 93.8556 1.30241 0 0 0 nan nan nan -1
109 1 8 89.9607 94.6659 0.911812 0 0 0 nan nan nan -1
132 2 14 91.7223 95.7195 0.207517 0 0 0 nan nan nan -1
133 2 14 93.1127 95.7927 0.42256 0 0 0 nan nan nan -1
188 2 3 90.9702 94.4496 0.537049 0 0 0 nan nan nan -1
233 2 8 88.9333 97.0243 0.21548 0 0 0 nan nan nan -1
237 2 8 91.4851 93.8556 1.30241 0 0 0 nan nan nan -1
239 2 8 89.9607 94.6659 0.911812 0 0 0 nan nan nan -1
262 3 14 91.7223 95.7195 0.207517 0 0 0 nan nan nan -1
263 3 14 93.1127 95.7927 0.42256 0 0 0 nan nan nan -1
318 3 3 90.9702 94.4496 0.537049 0 0 0 nan nan nan -1
363 3 8 88.9333 97.0243 0.21548 0 0 0 nan nan nan -1
367 3 8 91.4851 93.8556 1.30241 0 0 0 nan nan nan -1
369 3 8 89.9607 94.6659 0.911812 0 0 0 nan nan nan -1
4 1 14 93.8008 96.972 0.128267 0 0 0 nan nan nan -1
7 1 4 95.2859 97.0739 0.316943 0 0 0 nan nan nan -1
8 1 14 96.011 95.8156 0.694489 0 0 0 nan nan nan -1
9 1 14 95.3435 94.6522 1.00599 0 0 0 nan nan nan -1
10 1 4 93.8386 94.5901 0.973411 0 0 0 nan nan nan -1
11 1 14 96.0738 93.4599 1.33455 0 0 0 nan nan nan -1
12 1 14 97.4642 93.4335 1.29549 0 0 0 nan nan nan -1
13 1 14 98.1769 94.6543 1.03367 0 0 0 nan nan nan -1
14 1 14 97.4391 95.8517 0.728009 0 0 0 nan nan nan -1
15 1 13 98.1045 97.069 0.517079 0 0 0 nan nan nan -1
16 1 14 99.4936 97.1642 0.453081 0 0 0 nan nan nan -1
18 1 40 99.587 94.7882 1.06756 0 0 0 nan nan nan -1
27 1 40 99.553 99.7001 0.400172 0 0 0 nan nan nan -1
65 1 41 98.2318 99.7966 0.521021 0 0 0 nan nan nan -1
71 1 8 95.5049 97.8575 1.06834 0 0 0 nan nan nan -1
72 1 8 93.4707 94.3938 1.99972 0 0 0 nan nan nan -1
73 1 8 93.5366 93.6942 0.404756 0 0 0 nan nan nan -1
74 1 15 97.524 97.971 0.412798 0 0 0 nan nan nan -1
105 1 8 94.4684 99.6908 0.252483 0 0 0 nan nan nan -1
134 2 14 93.8008 96.972 0.128267 0 0 0 nan nan nan -1
137 2 4 95.2859 97.0739 0.316943 0 0 0 nan nan nan -1
138 2 14 96.011 95.8156 0.694489 0 0 0 nan nan nan -1
139 2 14 95.3435 94.6522 1.00599 0 0 0 nan nan nan -1
140 2 4 93.8386 94.5901 0.973411 0 0 0 nan nan nan -1
141 2 14 96.0738 93.4599 1.33455 0 0 0 nan nan nan -1
142 2 14 97.4642 93.4335 1.29549 0 0 0 nan nan nan -1
143 2 14 98.1769 94.6543 1.03367 0 0 0 nan nan nan -1
144 2 14 97.4391 95.8517 0.728009 0 0 0 nan nan nan -1
145 2 13 98.1045 97.069 0.517079 0 0 0 nan nan nan -1
146 2 14 99.4936 97.1642 0.453081 0 0 0 nan nan nan -1
148 2 40 99.587 94.7882 1.06756 0 0 0 nan nan nan -1
157 2 40 99.553 99.7001 0.400172 0 0 0 nan nan nan -1
195 2 41 98.2318 99.7966 0.521021 0 0 0 nan nan nan -1
201 2 8 95.5049 97.8575 1.06834 0 0 0 nan nan nan -1
202 2 8 93.4707 94.3938 1.99972 0 0 0 nan nan nan -1
203 2 8 93.5366 93.6942 0.404756 0 0 0 nan nan nan -1
204 2 15 97.524 97.971 0.412798 0 0 0 nan nan nan -1
235 2 8 94.4684 99.6908 0.252483 0 0 0 nan nan nan -1
264 3 14 93.8008 96.972 0.128267 0 0 0 nan nan nan -1
267 3 4 95.2859 97.0739 0.316943 0 0 0 nan nan nan -1
268 3 14 96.011 95.8156 0.694489 0 0 0 nan nan nan -1
269 3 14 95.3435 94.6522 1.00599 0 0 0 nan nan nan -1
270 3 4 93.8386 94.5901 0.973411 0 0 0 nan nan nan -1
271 3 14 96.0738 93.4599 1.33455 0 0 0 nan nan nan -1
272 3 14 97.4642 93.4335 1.29549 0 0 0 nan nan nan -1
273 3 14 98.1769 94.6543 1.03367 0 0 0 nan nan nan -1
274 3 14 97.4391 95.8517 0.728009 0 0 0 nan nan nan -1
275 3 13 98.1045 97.069 0.517079 0 0 0 nan nan nan -1
276 3 14 99.4936 97.1642 0.453081 0 0 0 nan nan nan -1
278 3 40 99.587 94.7882 1.06756 0 0 0 nan nan nan -1
287 3 40 99.553 99.7001 0.400172 0 0 0 nan nan nan -1
325 3 41 98.2318 99.7966 0.521021 0 0 0 nan nan nan -1
331 3 8 95.5049 97.8575 1.06834 0 0 0 nan nan nan -1
332 3 8 93.4707 94.3938 1.99972 0 0 0 nan nan nan -1
333 3 8 93.5366 93.6942 0.404756 0 0 0 nan nan nan -1
334 3 15 97.524 97.971 0.412798 0 0 0 nan nan nan -1
365 3 8 94.4684 99.6908 0.252483 0 0 0 nan nan nan -1
118 1 8 3.76768 92.673 98.7659 0 0 0 nan nan nan 0
248 2 8 3.76768 92.673 98.7659 0 0 0 nan nan nan 0
378 3 8 3.76768 92.673 98.7659 0 0 0 nan nan nan 0
20 1 14 2.28177 97.1383 99.9014 0 0 0 nan nan nan 0
23 1 4 3.61319 97.0029 99.1997 0 0 0 nan nan nan 0
24 1 5 3.42413 96.0993 97.9647 0 0 0 nan nan nan 0
25 1 5 2.99808 94.6737 98.4017 0 0 0 nan nan nan 0
26 1 4 2.39115 94.6867 99.8314 0 0 0 nan nan nan 0
62 1 3 4.12893 93.6402 98.3838 0 0 0 nan nan nan 0
63 1 3 4.65644 96.1442 97.0581 0 0 0 nan nan nan 0
75 1 8 4.01085 97.9695 98.8899 0 0 0 nan nan nan 0
76 1 8 4.36773 96.5507 99.8699 0 0 0 nan nan nan 0
77 1 8 2.58262 96.5337 97.4003 0 0 0 nan nan nan 0
78 1 8 2.21058 94.328 97.7136 0 0 0 nan nan nan 0
80 1 8 1.78237 93.7834 99.9349 0 0 0 nan nan nan 0
117 1 8 4.52558 93.4805 97.3717 0 0 0 nan nan nan 0
119 1 8 4.96168 93.9644 99.0284 0 0 0 nan nan nan 0
120 1 8 4.84524 97.1755 96.7248 0 0 0 nan nan nan 0
121 1 8 4.52116 95.5161 96.1645 0 0 0 nan nan nan 0
122 1 8 5.55475 95.7908 97.586 0 0 0 nan nan nan 0
150 2 14 2.28177 97.1383 99.9014 0 0 0 nan nan nan 0
153 2 4 3.61319 97.0029 99.1997 0 0 0 nan nan nan 0
154 2 5 3.42413 96.0993 97.9647 0 0 0 nan nan nan 0
155 2 5 2.99808 94.6737 98.4017 0 0 0 nan nan nan 0
156 2 4 2.39115 94.6867 99.8314 0 0 0 nan nan nan 0
192 2 3 4.12893 93.6402 98.3838 0 0 0 nan nan nan 0
193 2 3 4.65644 96.1442 97.0581 0 0 0 nan nan nan 0
205 2 8 4.01085 97.9695 98.8899 0 0 0 nan nan nan 0
206 2 8 4.36773 96.5507 99.8699 0 0 0 nan nan nan 0
207 2 8 2.58262 96.5337 97.4003 0 0 0 nan nan nan 0
208 2 8 2.21058 94.328 97.7136 0 0 0 nan nan nan 0
210 2 8 1.78237 93.7834 99.9349 0 0 0 nan nan nan 0
247 2 8 4.52558 93.4805 97.3717 0 0 0 nan nan nan 0
249 2 8 4.96168 93.9644 99.0284 0 0 0 nan nan nan 0
250 2 8 4.84524 97.1755 96.7248 0 0 0 nan nan nan 0
251 2 8 4.52116 95.5161 96.1645 0 0 0 nan nan nan 0
252 2 8 5.55475 95.7908 97.586 0 0 0 nan nan nan 0
280 3 14 2.28177 97.1383 99.9014 0 0 0 nan nan nan 0
283 3 4 3.61319 97.0029 99.1997 0 0 0 nan nan nan 0
284 3 5 3.42413 96.0993 97.9647 0 0 0 nan nan nan 0
285 3 5 2.99808 94.6737 98.4017 0 0 0 nan nan nan 0
286 3 4 2.39115 94.6867 99.8314 0 0 0 nan nan nan 0
322 3 3 4.12893 93.6402 98.3838 0 0 0 nan nan nan 0
323 3 3 4.65644 96.1442 97.0581 0 0 0 nan nan nan 0
335 3 8 4.01085 97.9695 98.8899 0 0 0 nan nan nan 0
336 3 8 4.36773 96.5507 99.8699 0 0 0 nan nan nan 0
337 3 8 2.58262 96.5337 97.4003 0 0 0 nan nan nan 0
338 3 8 2.21058 94.328 97.7136 0 0 0 nan nan nan 0
340 3 8 1.78237 93.7834 99.9349 0 0 0 nan nan nan 0
377 3 8 4.52558 93.4805 97.3717 0 0 0 nan nan nan 0
379 3 8 4.96168 93.9644 99.0284 0 0 0 nan nan nan 0
380 3 8 4.84524 97.1755 96.7248 0 0 0 nan nan nan 0
381 3 8 4.52116 95.5161 96.1645 0 0 0 nan nan nan 0
382 3 8 5.55475 95.7908 97.586 0 0 0 nan nan nan 0
1 1 14 91.0376 96.8302 99.6806 0 0 0 nan nan nan -1
5 1 14 93.1134 98.1064 99.6518 0 0 0 nan nan nan -1
6 1 14 91.7231 98.043 99.448 0 0 0 nan nan nan -1
54 1 4 90.9634 99.2558 98.953 0 0 0 nan nan nan -1
55 1 3 91.0215 99.3938 97.4234 0 0 0 nan nan nan -1
56 1 3 89.5619 96.7168 99.3614 0 0 0 nan nan nan -1
97 1 8 89.9147 99.2022 99.2762 0 0 0 nan nan nan -1
98 1 8 90.6147 98.4925 96.9398 0 0 0 nan nan nan -1
99 1 8 92.0623 99.5065 97.0851 0 0 0 nan nan nan -1
101 1 8 89.2843 95.6859 99.1074 0 0 0 nan nan nan -1
102 1 8 89.2831 97.349 98.5084 0 0 0 nan nan nan -1
108 1 8 90.8547 93.804 99.6484 0 0 0 nan nan nan -1
131 2 14 91.0376 96.8302 99.6806 0 0 0 nan nan nan -1
135 2 14 93.1134 98.1064 99.6518 0 0 0 nan nan nan -1
136 2 14 91.7231 98.043 99.448 0 0 0 nan nan nan -1
184 2 4 90.9634 99.2558 98.953 0 0 0 nan nan nan -1
185 2 3 91.0215 99.3938 97.4234 0 0 0 nan nan nan -1
186 2 3 89.5619 96.7168 99.3614 0 0 0 nan nan nan -1
227 2 8 89.9147 99.2022 99.2762 0 0 0 nan nan nan -1
228 2 8 90.6147 98.4925 96.9398 0 0 0 nan nan nan -1
229 2 8 92.0623 99.5065 97.0851 0 0 0 nan nan nan -1
231 2 8 89.2843 95.6859 99.1074 0 0 0 nan nan nan -1
232 2 8 89.2831 97.349 98.5084 0 0 0 nan nan nan -1
238 2 8 90.8547 93.804 99.6484 0 0 0 nan nan nan -1
261 3 14 91.0376 96.8302 99.6806 0 0 0 nan nan nan -1
265 3 14 93.1134 98.1064 99.6518 0 0 0 nan nan nan -1
266 3 14 91.7231 98.043 99.448 0 0 0 nan nan nan -1
314 3 4 90.9634 99.2558 98.953 0 0 0 nan nan nan -1
315 3 3 91.0215 99.3938 97.4234 0 0 0 nan nan nan -1
316 3 3 89.5619 96.7168 99.3614 0 0 0 nan nan nan -1
357 3 8 89.9147 99.2022 99.2762 0 0 0 nan nan nan -1
358 3 8 90.6147 98.4925 96.9398 0 0 0 nan nan nan -1
359 3 8 92.0623 99.5065 97.0851 0 0 0 nan nan nan -1
361 3 8 89.2843 95.6859 99.1074 0 0 0 nan nan nan -1
362 3 8 89.2831 97.349 98.5084 0 0 0 nan nan nan -1
368 3 8 90.8547 93.804 99.6484 0 0 0 nan nan nan -1
57 1 3 93.9161 99.3524 99.3604 0 0 0 nan nan nan -1
70 1 8 95.7367 97.4691 99.3899 0 0 0 nan nan nan -1
104 1 8 94.6783 99.1532 98.5889 0 0 0 nan nan nan -1
187 2 3 93.9161 99.3524 99.3604 0 0 0 nan nan nan -1
200 2 8 95.7367 97.4691 99.3899 0 0 0 nan nan nan -1
234 2 8 94.6783 99.1532 98.5889 0 0 0 nan nan nan -1
317 3 3 93.9161 99.3524 99.3604 0 0 0 nan nan nan -1
330 3 8 95.7367 97.4691 99.3899 0 0 0 nan nan nan -1
364 3 8 94.6783 99.1532 98.5889 0 0 0 nan nan nan -1
