LAMMPS data file via write_data, version 24 Mar 2022, timestep = 3000

102 atoms
69 atom types
115 bonds
60 bond types
209 angles
170 angle types
335 dihedrals
256 dihedral types
42 impropers
5 improper types

0 100 xlo xhi
0 100 ylo yhi
0 100 zlo zhi

Masses

1 1.008
2 15.999
3 12.011
4 12.011
5 12.011
6 12.011
7 12.011
8 1.008
9 12.011
10 12.011
11 12.011
12 1.008
13 12.011
14 12.011
15 1.008
16 12.011
17 15.999
18 14.007
19 14.007
20 14.007
21 1.008
22 1.008
23 12.011
24 15.999
25 15.999
26 1.008
27 12.011
28 15.999
29 12.011
30 12.011
31 12.011
32 12.011
33 12.011
34 14.007
35 12.011
36 12.011
37 12.011
38 12.011
39 1.008
40 12.011
41 15.999
42 1.008
43 12.011
44 15.999
45 15.999
46 12.011
47 12.011
48 12.011
49 12.011
50 1.008
51 12.011
52 15.999
53 1.008
54 1.008
55 12.011
56 12.011
57 12.011
58 14.007
59 12.011
60 12.011
61 32.06
62 12.011
63 14.007
64 12.011
65 1.008
66 12.011
67 1.008
68 22.99
69 35.453

Pair Coeffs # lj/cut/coul/long

1 0 0
2 0.1554 3.16557
3 0.066 3.5
4 0.066 3.5
5 0.066 3.5
6 0.066 3.5
7 0.066 3.5
8 0.03 2.5
9 0.076 3.55
10 0.076 3.55
11 0.076 3.55
12 0.03 2.42
13 0.07 3.55
14 0.07 3.55
15 0.03 2.42
16 0.105 3.75
17 0.21 2.96
18 0.17 3.25
19 0.17 3.25
20 0.17 3.25
21 0 0
22 0 0
23 0.105 3.75
24 0.21 2.96
25 0.17 3
26 0 0
27 0.105 3.75
28 0.21 2.96
29 0.066 3.5
30 0.066 3.5
31 0.066 3.5
32 0.066 3.5
33 0.076 3.55
34 0.17 3.25
35 0.066 3.5
36 0.066 3.5
37 0.066 3.5
38 0.066 3.5
39 0.03 2.5
40 0.07 3.55
41 0.17 3.07
42 0 0
43 0.105 3.75
44 0.21 2.96
45 0.14 2.9
46 0.066 3.5
47 0.066 3.5
48 0.066 3.5
49 0.066 3.5
50 0.03 2.5
51 0.07 3.55
52 0.17 3.12
53 0 0
54 0.03 2.5
55 0.066 3.5
56 0.066 3.5
57 0.066 3.5
58 0.17 3.25
59 0.07 3.55
60 0.07 3.55
61 0.25 3.55
62 0.07 3.55
63 0.17 3.3
64 0.066 3.5
65 0 0
66 0.066 3.5
67 0.015 2.5
68 0.0005 4.07
69 0.71 4.02

Bond Coeffs # harmonic

1 350 1.51
2 570 1.229
3 450 1.364
4 317 1.522
5 214 1.327
6 300 1.79
7 490 1.335
8 317 1.522
9 340 1.09
10 410 1.444
11 400 1.49
12 656 1.25
13 457 1.358
14 553 0.945
15 320 1.41
16 250 1.47
17 400 1.38
18 320 1.45
19 450 1.37
20 450 1.364
21 553 0.945
22 268 1.529
23 222 1.81
24 320 1.41
25 245 1.781
26 337 1.449
27 382 1.448
28 340 1.09
29 317 1.51
30 317 1.51
31 367 1.471
32 337 1.449
33 166 2.038
34 250 1.73
35 250 1.76
36 250 1.76
37 250 1.47
38 200 1.69
39 320 1.45
40 320 1.45
41 450 1.37
42 450 1.364
43 300 1.725
44 300 1.725
45 434 1.01
46 427 1.381
47 600 1
48 350 1.445
49 434 1.01
50 481 1.34
51 434 1.01
52 434 1.01
53 340 1.08
54 549 1.34
55 427 1.433
56 469 1.4
57 367 1.08
58 400 1.45
59 483 1.339
60 500 1.32

Angle Coeffs # harmonic

1 80 121.4
2 80 126
3 80 121
4 70 108
5 70 116
6 80 117.2
7 80 120.4
8 81 111.4
9 83 123.4
10 75 109
11 75 119
12 70 114.2
13 70 116.6
14 70 116.6
15 80 122.9
16 81 111.4
17 70 116
18 80 120.4
19 35 115
20 35 115
21 35 123
22 40 114
23 40 115
24 40 115
25 70 115.5
26 80 125.3
27 35 115
28 70 115.5
29 70 116
30 70 120
31 80 120.4
32 81 111.4
33 85 120
34 70 117
35 70 117
36 80 126
37 80 126
38 35 122
39 80 122.5
40 35 113
41 55 108.5
42 49 105.4
43 35 109
44 35 113
45 63 111.1
46 50 109.5
47 58.35 112.7
48 63 111.1
49 50 114.7
50 50 109.5
51 50 109.5
52 69 109.8
53 69 109.8
54 78 111.7
55 50 109.5
56 63 110.1
57 80 109.7
58 50 114.7
59 56.2 109.47
60 80 111.2
61 33 107.8
62 35 109.5
63 35 109.5
64 35 109.5
65 35 109.5
66 35 109.5
67 35 109.5
68 37.5 110.7
69 51 107.6
70 35 109.5
71 63 111.1
72 63 112.4
73 35 109.5
74 40 109.5
75 40 109.5
76 50 109.5
77 50 109.5
78 50 114.7
79 63 112
80 63 114
81 80 111.2
82 35 109.5
83 80 111.2
84 80 111.2
85 35 109.5
86 63 110.1
87 65 109
88 62 98.9
89 68 103.7
90 62 104.2
91 62 104.2
92 60 109.5
93 83 116.9
94 75 111
95 75 111
96 75 111
97 75 111
98 83 116.9
99 70 126.4
100 46 115.7
101 50 118
102 50 121.9
103 70 112
104 70 108.6
105 35 110.2
106 35 119.8
107 35 120
108 38 118.4
109 35 119.8
110 50 118
111 50 121.9
112 70 118
113 75 109.47
114 51.8 107.2
115 63 111.1
116 35 109.5
117 43.6 106.4
118 35 116
119 50 116
120 50 116
121 63 112
122 70 119.7
123 70 130
124 35 114.5
125 35 117
126 35 117
127 35 119.7
128 60 114
129 35 120
130 70 123
131 70 123
132 70 124
133 75 121.5
134 85 119.4
135 85 120.7
136 35 123.3
137 85 117
138 85 119.7
139 70 119.7
140 63 120
141 70 120
142 70 120
143 70 120
144 70 120
145 70 120
146 70 124
147 75 120
148 85 119.4
149 85 120
150 35 119.1
151 35 120
152 35 120
153 70 120
154 35 116
155 70 116
156 70 116
157 70 120
158 70 121.5
159 70 124
160 75 120
161 50 113
162 43.6 109.5
163 55 114
164 70 120.5
165 35 113
166 50 118
167 70 117
168 70 120.5
169 70 117
170 70 117

Dihedral Coeffs # opls

1 1.6 3.2 0 0
2 0 0.5 0 0
3 0 0 0 0
4 0 0 0 0
5 0.7 -1.5 0 0
6 -0.5 0.2 0 0
7 0.8 -0.76 0 0
8 -0.9 0.3 0 0
9 0 0 0.3 0
10 3 5.5 0 0
11 0 5 0 0
12 1.5 5.5 0 0
13 -2 5 0 0
14 1.5 5.5 0 0
15 4 5 0 0
16 0 0 0.085 0
17 0 0 0 0
18 0 0 0 0
19 -0.65 0 0 0
20 0 0.82 0 0
21 0 0 0 0
22 0 0 0 0
23 0 0.546 0 0
24 0 1.412 0 0
25 5.26 0.82 0 0
26 0 0 0 0
27 1.454 -0.144 -0.775 0
28 0 0 0.275 0
29 0 0 -0.553 0
30 0 0 0.132 0
31 0 0 0 0
32 0 0 0.36 0
33 1.173 0.189 -1.2 0
34 0.65 0 0 0
35 1.816 1.222 1.581 0
36 0 0 0 0
37 0 0 0 0
38 0 0 0.36 0
39 0 0 0.275 0
40 0 0.82 0 0
41 0 0.82 0 0
42 0 0 0 0
43 0 5.124 0 0
44 0 5 0 0
45 4.669 5.124 0 0
46 1.5 5 0 0
47 -2 5 0 0
48 4.669 5.124 0 0
49 4 5 0 0
50 0.4 4.9 0 0
51 0 4.9 0 0
52 0 6.603 0 0
53 0 6.089 0 0
54 0 4.9 0 0
55 0 6.089 0 0
56 0 6.089 0 0
57 2.3 6.089 0 0
58 0 4.9 0 0
59 4.542 6.603 1.045 0
60 2.3 6.089 0 0
61 0 4.9 0 0
62 2.3 6.089 0 0
63 2.3 6.089 0 0
64 0 4.9 0 0
65 2.3 6.089 0 0
66 4.6 0 0 0
67 0 4.9 0 0
68 2.3 6.089 0 0
69 0 4.9 0 0
70 0 4.9 0 0
71 0 4.9 0 0
72 2.3 6.089 0 0
73 0.9 0.23 -0.505 0
74 0 0 0 0
75 2.5 6 0 0
76 3.2 -3 0 0
77 0 0 0 0
78 2 0 0 0
79 0 2.1 0 0
80 0 2.1 0 0
81 0 0.2 0 0
82 0 2.1 0 0
83 0 1.1 0 0
84 0 0.2 0 0
85 0 14 0 0
86 0 14 0 0
87 0 14 0 0
88 0 14 0 0
89 -0.356 -0.174 0.492 0
90 0 0 0.352 0
91 -0.9 0 0 0
92 -0.9 0 0 0
93 0 0 0.3 0
94 0 0 0.3 0
95 5.519 -6.7 0.581 0
96 2.722 -5.154 0 0
97 0 1.682 0 0
98 0 1.682 0 0
99 3 3 0 0
100 -4.344 -1.714 0 0
101 1.711 -0.5 0.663 0
102 1.428 0.086 0.029 0
103 -0.55 0 1 0
104 -6.18 0 0 0
105 -2.06 -0.313 0.315 0
106 -4.344 -1.714 0 0
107 -9 2 0.8 0
108 0 0 -0.1 0
109 -1.697 -0.456 0.585 0
110 9.508 0 0 0
111 -1.552 0 0 0
112 4.319 0 0 0
113 8 0 0 0
114 6.28 -1.467 2.03 0
115 0 0 0.468 0
116 1.3 -0.05 0.2 0
117 2.619 -0.62 0.258 0
118 0 0 0.4 0
119 2.392 -0.674 0.55 0
120 0.845 -0.962 0.713 0
121 0 0 0.3 0
122 2.732 -0.229 0.485 0
123 0 0 0.452 0
124 -0.55 0 0 0
125 0 0 0.468 0
126 -0.25 0 0 0
127 2 0 0 0
128 0 0 0.4 0
129 11.035 -0.968 0.27 0
130 -1.013 -0.709 0.473 0
131 -0.8 0 0 0
132 0 0 0.464 0
133 0.845 -0.962 0.713 0
134 0 0 0.3 0
135 0 0 0.366 0
136 0 0 0.462 0
137 0 0 0.384 0
138 1 0 0 0
139 0.925 -0.576 0.677 0
140 1.941 -0.836 0.935 0
141 0 0 0.647 0
142 0 0 0.558 0
143 0 0 0.647 0
144 -0.521 -2.018 1.996 0
145 -0.5 -1.5 1 0
146 -1.22 -0.126 0.422 0
147 0.65 -0.25 0.67 0
148 0 0 0.76 0
149 0 0 0.198 0
150 0 0 0.76 0
151 0 0 0.76 0
152 0 0 0 0
153 -2.365 0.912 -0.85 0
154 -1.737 1.251 -3.501 0
155 0 0 0 0
156 0 0.462 0 0
157 4.753 -0.734 0 0
158 0 0 0 0
159 0 0 0 0
160 0 0 0 0
161 0 0 0 0
162 0 0 0 0
163 0.416 -0.128 0.695 0
164 -0.19 -0.417 0.418 0
165 0 0 0.56 0
166 0 0 0.4 0
167 0 0 0.56 0
168 1.711 -0.5 0.663 0
169 0 0 0.468 0
170 0.5 0 0 0
171 2.817 -0.169 0.543 0
172 0.346 0.405 -0.904 0
173 0 0 0.3 0
174 0 0 0.318 0
175 0 0 -0.372 0
176 0 -8 0 0
177 0 -8 0 0
178 0 0 0 0
179 0 0 0 0
180 -0.5 0.5 -0.5 0
181 0 -0.4 0 0
182 0 0 0 0
183 1.438 -0.124 0.264 0
184 0 0 0.347 0
185 0 0 0.302 0
186 0 0 0.261 0
187 0 0 0.462 0
188 0 -7.414 1.705 0
189 0 0.6 0 0
190 1.6 5.1 0 0
191 0 0 0.3 0
192 0 0 0.3 0
193 0.65 -0.25 0.67 0
194 0 0 0.76 0
195 -3.5 3 0 0
196 0 2.5 0 0
197 0 3 0 0
198 0.4 5.5 0 0
199 3 3 0 0
200 0 2.1 0 0
201 0 2.1 0 0
202 0 2.1 0 0
203 0 2.1 0 0
204 0 0 0.3 0
205 0 0 0.3 0
206 0 0 0.3 0
207 -7.582 3.431 3.198 0
208 0 2.03 0 0
209 0 -8 0 0
210 0 -8 0 0
211 0 14 0 0
212 0 14 0 0
213 0 14 0 0
214 0 14 0 0
215 0 14 0 0
216 0 14 0 0
217 0 14 0 0
218 0 14 0 0
219 0 14 0 0
220 -1.6 14 0 0
221 0 14 0 0
222 0 14 0 0
223 0 14 0 0
224 0.205 -0.531 0 0
225 0 0 -0.372 0
226 0 0 -0.372 0
227 1.241 3.353 -0.286 0
228 0 7.25 0 0
229 0 7.25 0 0
230 0 7.25 0 0
231 0 7.25 0 0
232 0 7.25 0 0
233 0 7.25 0 0
234 0 7.25 0 0
235 0 7.25 0 0
236 0 7.25 0 0
237 0 7.25 0 0
238 0 7.25 0 0
239 0 7.25 0 0
240 0 7.25 0 0
241 0 7.25 0 0
242 0 0 0 0
243 0 7.25 0 0
244 0 7.25 0 0
245 0 7.25 0 0
246 0 7.25 0 0
247 0 7.25 0 0
248 0 7.25 0 0
249 1.816 1.222 1.581 0
250 0 0.82 0 0
251 1 0 0 0
252 6.28 -1.467 2.03 0
253 1.428 0.086 0.029 0
254 1.438 -0.124 0.264 0
255 1.3 -0.05 0.2 0
256 1.3 -0.05 0.2 0

Improper Coeffs # harmonic

1 10.5 0
2 10.5 0
3 1 0
4 15 0
5 1.1 0

Atoms # full

89 1 8 0.06 93.23404927432657 3.77156790343518 0.8948503904599976 -1 0 0
90 1 8 0.06 92.66291058276616 3.4532907463193743 99.2248044645524 -1 0 -1
91 1 8 0.06 93.5564164422214 4.8338405490778715 99.60601808279321 -1 0 -1
1 1 40 0.15 96.00634173794296 3.6857756848339847 99.443193444017 -1 0 -1
2 1 13 -0.115 97.25883869129333 2.997508707259608 99.28157323070876 -1 0 -1
3 1 14 0 97.19083205455944 1.5678297395671246 99.30085396943018 -1 0 -1
4 1 14 0 96.03901490502827 0.8737487134269405 99.65451205620447 -1 0 -1
5 1 13 -0.115 94.77170277470121 1.5564884644963666 99.6603087397561 -1 0 -1
6 1 14 0 94.74738675866439 2.9798587689104985 99.58652855644527 -1 0 -1
9 1 4 -0.12 98.38064390365936 0.6155308197434105 99.1543020769234 -1 0 -1
53 1 41 -0.585 96.02667954669406 5.037144031680385 99.57957226385862 -1 0 -1
54 1 3 -0.18 93.51532189677167 3.7803726532583517 99.83564676108062 -1 0 -1
61 1 15 0.115 98.15775927712485 3.508346844309211 99.11223275203298 -1 0 -1
62 1 15 0.115 93.85860912245191 1.0512837697674797 99.84240443039909 -1 0 -1
64 1 8 0.06 98.77862109551019 0.5524001073605108 98.12836526862246 -1 0 -1
88 1 42 0.435 96.83441293664853 5.461883399948214 99.4142547234699 -1 0 -1
63 1 8 0.06 99.27354519628244 0.8534332629105748 99.75132777845393 -1 0 -1
51 1 13 -0.115 2.490663743496188 90.0066276330416 0.4272743964214494 0 -1 0
52 1 13 -0.115 1.3561334778301584 90.84815485775812 0.46984852692388246 0 -1 0
86 1 15 0.115 2.4738992751050577 89.00444513382449 0.7216443937622546 0 -1 0
87 1 15 0.115 0.43606767182638756 90.30412781836569 0.6867651717399389 0 -1 0
43 1 14 0 1.4344452522790285 92.23738114072556 0.159405926151284 0 -1 0
78 1 8 0.06 92.39055474132789 89.01157162390763 0.1892983922602897 -1 -1 0
76 1 8 0.06 94.11351275332298 87.44704608773412 0.900556749539527 -1 -1 0
100 1 8 0.06 97.61051985647698 92.87531056628671 0.6081854938482831 -1 -1 0
83 1 15 0.115 99.48754352066251 92.56492412271874 0.8638079213962655 -1 -1 0
17 1 14 0 95.17124182456445 96.05912067775701 0.15945406505254325 -1 -1 0
67 1 8 0.06 94.08513327979877 97.45933981201661 2.2680535618911253 -1 -1 0
42 1 13 -0.115 0.30698335907001845 93.07440613062747 0.24723814185968035 0 -1 0
96 1 8 0.06 8.014655641374299 93.52316681841647 0.6027588417915448 0 -1 0
15 1 4 -0.12 93.52403548039251 97.51038749261645 1.317132456233433 -1 -1 0
68 1 8 0.06 92.49674584245942 97.74790906225564 1.603611479513545 -1 -1 0
69 1 8 0.06 93.44461319255092 95.41548258908269 1.2341386682854392 -1 -1 0
101 1 8 0.06 94.25580247640043 93.57169300420462 0.9708372850844111 -1 -1 0
14 1 4 -0.12 94.0958159132572 98.68005464071017 0.6187866314489016 -1 -1 0
16 1 4 -0.12 93.75917189062545 96.22355227357795 0.5150516272979081 -1 -1 0
65 1 8 0.06 94.15923685654644 99.37992129573239 1.4455811772289502 -1 -1 0
50 1 40 0.15 3.761090653555966 90.58691421975597 0.08343446683292655 0 -1 0
59 1 41 -0.585 92.72123154843078 91.58492311923685 0.13411594887368494 -1 -1 0
98 1 42 0.435 92.77555461507198 92.53731231267187 0.32673508182695343 -1 -1 0
13 1 14 0 95.54208731273431 98.44209531587636 0.2045694713992532 -1 -1 0
12 1 14 0 96.07614867498684 97.14936647452987 0.10389312482695345 -1 -1 0
49 1 14 0 3.8907084755772194 91.99051315206566 99.84590808527352 0 -1 -1
19 1 14 0 97.00926407878747 94.4838304850173 99.64879612929457 -1 -1 -1
60 1 41 -0.585 4.774720872213635 89.71997760690404 99.89512754228767 0 -1 -1
85 1 15 0.115 6.034755939523257 91.90498821983005 99.63454860045309 0 -1 -1
97 1 42 0.435 0.085660141042905 89.28897953886606 97.99755780237236 0 -1 -1
99 1 42 0.435 5.566054997294549 90.13040758827641 99.700202295375 0 -1 -1
44 1 14 0 2.7085205326488273 92.734779532693 99.8767345146263 0 -1 -1
48 1 13 -0.115 5.19978749661342 92.51791688207256 99.68989063400237 0 -1 -1
35 1 4 -0.12 93.23348968284441 88.79782449265844 99.5800761742373 -1 -1 -1
20 1 14 0 97.94595600560832 95.58106035022217 99.74885287347617 -1 -1 -1
75 1 8 0.06 92.99336198346843 86.68930812346899 99.88025019482787 -1 -1 -1
77 1 8 0.06 92.82908443283115 88.62967677386796 98.61520168373606 -1 -1 -1
11 1 14 0 97.42554527636278 96.90760431581538 99.76506960775819 -1 -1 -1
25 1 14 0 96.25002792421022 91.84815069705563 99.37736897570643 -1 -1 -1
26 1 14 0 94.93764081620101 92.2028030383764 99.67191517570286 -1 -1 -1
28 1 40 0.15 93.96197036049686 91.26335561093742 99.68517890136188 -1 -1 -1
29 1 14 0 94.25276127379149 89.88386925724492 99.46906079912982 -1 -1 -1
30 1 14 0 95.57511281155574 89.46734084970383 99.09598541062358 -1 -1 -1
31 1 14 0 96.574741037758 90.49933892996366 99.05004600610992 -1 -1 -1
32 1 14 0 95.9715356446967 88.09535279123043 98.91067581736755 -1 -1 -1
33 1 4 -0.12 94.96640013244905 86.96682272097938 99.03693569802233 -1 -1 -1
34 1 4 -0.12 93.7765909262139 87.38836432620543 99.88621812096721 -1 -1 -1
36 1 13 -0.115 97.86621155157263 90.13242709172856 98.73684642251631 -1 -1 -1
37 1 40 0.15 98.26288171454155 88.82805208077346 98.49031874716421 -1 -1 -1
38 1 13 -0.115 97.31311403641644 87.81975221070418 98.55046571212256 -1 -1 -1
58 1 41 -0.585 99.52939154033616 88.51065191678788 98.07922057107686 -1 -1 -1
71 1 8 0.06 98.06790108313518 92.9696606609708 98.81419917889563 -1 -1 -1
73 1 8 0.06 94.58058140282674 86.74338847828072 98.04329050754191 -1 -1 -1
74 1 8 0.06 95.4164405586822 86.10919879695713 99.49008069802736 -1 -1 -1
79 1 15 0.115 98.62445903889119 90.86512945446394 98.65434148699032 -1 -1 -1
80 1 15 0.115 97.68602441478598 86.80552804761427 98.38060771412391 -1 -1 -1
22 1 14 0 0.18086718875105717 96.56749001107677 99.20233027981115 0 -1 -1
39 1 4 -0.12 1.6138316205737955 96.2533827139104 98.89196376978057 0 -1 -1
40 1 14 0 1.6379147077847622 94.81724002470527 99.35220990830875 0 -1 -1
41 1 14 0 0.34735214650643387 94.37263825641286 99.70524387385969 0 -1 -1
45 1 14 0 2.8078463465704293 94.06258582251144 99.53887161932343 0 -1 -1
46 1 13 -0.115 4.120390556751938 94.6570949266591 99.44213152057839 0 -1 -1
47 1 14 0 5.326947223533381 93.92965767186851 99.50660171886695 0 -1 -1
55 1 41 -0.585 0.4262548390083053 98.82352161285954 98.55618375672505 0 -1 -1
81 1 8 0.06 1.7787585294094235 96.28086319199912 97.81672906784681 0 -1 -1
84 1 15 0.115 4.275927614190614 95.673781753092 99.21920671914326 0 -1 -1
92 1 42 0.435 1.1303322921250596 98.44017495782936 98.0497211701907 0 -1 -1
93 1 8 0.06 6.610335567603418 94.84288639065818 98.19627234293868 0 -1 -1
56 1 4 -0.12 6.64571104042208 94.5866475644847 99.21620698261547 0 -1 -1
57 1 3 -0.18 7.873241720592281 93.74295937805027 99.54359083348878 0 -1 -1
94 1 8 0.06 8.736265908061622 94.28767836063729 99.30271882758176 0 -1 -1
95 1 8 0.06 7.911142897011196 92.832353541203 98.93343540915306 0 -1 -1
66 1 8 0.06 93.41858104109176 98.97765928576558 99.79337553017515 -1 -1 -1
70 1 8 0.06 93.11270169296847 96.30480485481809 99.65016127631802 -1 -1 -1
72 1 8 0.06 93.66328732576734 93.95101822662346 99.36836952808135 -1 -1 -1
24 1 4 -0.12 97.32398380847523 93.01981287430277 99.5260670039437 -1 -1 -1
23 1 40 0.15 99.66424628453723 97.86763207723122 99.08075997343974 -1 -1 -1
21 1 14 0 99.39845100161553 95.47001847621087 99.60607585026472 -1 -1 -1
7 1 14 0 96.34979408834319 99.53551415177456 99.81346222211788 -1 -1 -1
8 1 14 0 97.72999935223291 99.32670370474007 99.56931879769485 -1 -1 -1
10 1 14 0 98.31812796739634 98.01934074982688 99.53703240656642 -1 -1 -1
82 1 8 0.06 2.208910970662255 96.8926617726642 99.56494396330115 0 -1 -1
18 1 14 0 95.57219037371283 94.77397439358954 99.81997265477891 -1 -1 -1
102 1 8 0.06 6.672625379501547 95.52162181905237 99.71016572367996 0 -1 -1
27 1 4 -0.12 94.57511600125615 93.60448957402707 99.930398277396 -1 -1 -1

Velocities

89 -0.0010295295687115977 -0.00635369441650298 -0.008816193721227565
90 0.010396151446724145 -0.007107378384951762 0.005907177952467414
91 0.007091597379608034 -0.0005062590561647003 -0.0020705429356127924
1 0.001637617544470841 -6.267755456645806e-05 0.0031087610878282107
2 0.002806521684817374 -0.004096840665094554 -0.008573312792188491
3 0.0014284938133404144 0.004412976708804634 0.0020584363675975486
4 0.006539416957256345 -0.009916396429412576 0.003173500725177656
5 0.007569564885971686 -0.008395857094659915 0.002654835433404911
6 5.464494642861694e-05 -0.0035864275135718974 0.0030340854597150396
9 0.006267008336637435 -0.007340666058297893 -0.0019515139398689001
53 -0.00330361555396477 -0.0024115507828317453 -0.0024062441855663996
54 0.002046078174535659 -0.002624863935087857 0.0003952226881026619
61 0.013540609042758372 0.026868814519020026 0.01043611014495539
62 -0.021605809205832893 -0.001663412811070443 -0.017581362787640994
64 -0.03397034398418553 -0.0179521967241487 -0.02694843961649304
88 0.021969684991391025 0.012869182290411726 -0.016833094006149775
63 0.0003702774368673146 0.0018447073849805306 0.00934675953141272
51 -0.0179809305986963 -0.004402035621653448 0.005049639515534395
52 -0.0023467611044608277 -0.007763725709709216 0.0049476170690996675
86 -0.019235449521625207 -0.004730582792974575 -0.0014076298048982868
87 0.010724395229095927 0.014817580656934974 -0.004659390953825288
43 0.00017922780470991438 -0.003156603257216161 0.002000737050870844
78 0.023067255607328894 -0.003855343111458938 0.008283258323611322
76 -0.017346442878228622 -0.0025036927767208236 -0.005022593743231482
100 0.01659517968623026 -0.012017504577756289 -0.0035905193233455772
83 0.01396717167977986 0.011555458224719723 -0.00961371565214893
17 0.0022707307719971185 -0.004547558757875755 0.005114777584356216
67 -0.025829995302185896 0.018976082526177662 0.015740461167272117
42 -0.00023042227283433014 0.00014187508963530433 0.0020551200839172084
96 0.01797931922167439 0.014259393934649086 0.008652366918863313
15 0.006491148203827507 0.001777645367889171 0.006306638171735173
68 -0.002256141746927649 0.010145963069698899 -0.021084881935161386
69 0.015211546590087293 0.02116839295430263 0.0014355221283809617
101 0.019287991613813737 -0.021339820314205036 0.02427362166616549
14 0.007652967564195748 0.00030444645574281707 -0.005485610993757707
16 0.0034874900558711395 0.0036850138022758295 0.0014890041888019686
65 0.012262926084650476 -0.0030678332347950335 0.021495714943248947
50 -0.008389371994739875 -0.006713031760994582 0.0027742033738406
59 0.0072464455096836865 -0.0014393501761455541 -0.002275090220668597
98 0.012895153397713997 0.028635425629342588 0.0058498552872115975
13 -0.008231585036410536 6.653388717587952e-05 0.0038937330401557137
12 0.004034026279480288 -0.0021172443547375734 0.006599536557910248
49 -0.00661872519696571 0.005723070657514797 0.0013303007754952695
19 0.006687641858817906 0.0005931288786640569 -0.004951763295737529
60 0.007645010268402526 0.0001396993672146251 0.0037539041053637973
85 -0.026625153331721052 -0.02670822273116586 0.01790356161296323
97 -0.0044327908816697926 0.030080933357595447 -0.013489617255737744
99 0.011560318006500057 0.028121149581422932 -0.0009021472544115821
44 -0.006880737312967346 -0.0028095979815163175 -0.002532905337696246
48 -0.0015879536564154455 -0.005131752643060501 0.0018181552538829415
35 0.0008962090557368071 0.0030482359410594086 -0.0008666945390707703
20 -0.00403540069223978 0.006628014221077112 -0.006396682995311443
75 -0.007356391380582208 0.003117036428301524 -0.001863402221491225
77 0.015690697780576423 0.0078013095863547184 -0.020374041260937035
11 -0.0022451051274483187 0.004692967712279949 0.0008264817557941531
25 -0.009686061405418007 -0.006427911580917262 -0.0022131762120869906
26 0.0031881276450066447 0.008192992673182792 -0.0032655508499345337
28 0.00285701881039981 0.002218518243630843 0.004811353986318765
29 0.0010877366852198984 -0.004420475263926184 0.0006972397385374126
30 0.0057944130016560225 2.6959635191700965e-05 0.0007812393937094327
31 9.577435481233912e-05 0.0025557489517114462 -0.0037059883861146298
32 0.0021179739495853396 -0.0029875059753990667 -0.005655262655206583
33 -0.0037410710314562472 0.00048662959729150335 0.00475600239643061
34 0.002867573168247202 -0.00398775717252018 0.0005449251555077783
36 -0.0038200977499084367 0.007103037539141626 0.006094165030397525
37 -0.0006172252212013636 0.005134999671778502 -0.002713725316067044
38 0.000823665313513086 -0.0001008607440774185 -0.005372173201799547
58 -0.0006388281721015849 -0.0014129779236359153 7.142187056678909e-05
71 0.010292124057407995 0.003679450925107181 0.005140187217667564
73 0.014738249441663576 -0.0379203186477474 0.021614523009064843
74 -0.0011548579318440906 -0.006803404764613207 -0.00857852357130058
79 -0.004851698105495253 0.01681105489235382 0.015733361582309643
80 0.001282270627073171 0.02620758516708572 -0.010393234464416689
22 0.009254197629751866 0.0024357541106206386 -0.0006987319840525143
39 0.0031448888172618296 0.0018165175933508458 -0.001810176499867225
40 -0.0050096790950464294 0.0023071767974937635 6.15252482655102e-05
41 -0.0012033248142720536 -0.0013873778415556262 0.0055609940206775565
45 -0.006365416559758937 0.0070169143130700525 -0.006507489332716574
46 -0.0040580181716138855 0.0071042634560420665 -0.006424887276159352
47 0.00801280861332163 -0.002350768526451291 0.002962879366006272
55 -0.0021003199510822106 -0.0033299875258422785 0.0032365925161101424
81 -0.00681365317966632 -0.013470352007744962 -0.0033218577839105082
84 0.007426505695317742 0.0018281783139097033 0.005519895758437546
92 0.0020241767287988346 -0.001584087451668773 -0.0267385223255183
93 -0.011965534294282421 -0.029849165294057026 -0.004140351388819631
56 -0.0009098108020523829 -0.0014497310871258258 -0.006348136407804711
57 0.003421697322418332 -0.003219721643471746 0.0034862659311150593
94 0.03611458869232528 0.002445336501972191 -0.019394269131295237
95 -0.01172481624190612 -0.010272435513377679 0.0074651736918500125
66 0.012358140610736996 -0.01344063345422727 0.01069052579049053
70 -0.031338038371740526 -0.019168409761092586 -0.018332775038660945
72 -0.007110671183176398 0.019741219984850355 0.00512551072789387
24 -0.00642610619518122 0.009880040811665504 0.0021881623828490563
23 0.0038038070328904917 0.007621058989396506 -0.002415783418429756
21 -0.007929424132823232 0.0013871015659661671 -5.961086921518248e-05
7 -0.007901158867512656 0.0038716903846438733 -0.0013726106236167921
8 -0.0017176392170430012 0.004868921606869552 -0.008247578264835553
10 -0.004490075041562281 -0.0029364709531158792 -0.003946231213131918
82 -0.005440420023216042 -0.021424614979031645 -0.019858227264097677
18 -0.004638490706307232 0.001573805919600097 0.00264379868940598
102 -0.0019589189724873416 -0.022180753485050095 -0.00924788932503374
27 0.003317219776849524 0.0050877792249604675 0.0013061554441120694

Bonds

1 56 1 2
2 20 1 53
3 56 1 6
4 56 2 3
5 57 2 61
6 30 3 9
7 56 3 4
8 56 4 5
9 56 4 7
10 56 5 6
11 57 5 62
12 30 6 54
13 28 9 64
14 28 9 63
15 14 53 88
16 28 54 89
17 28 54 90
18 28 54 91
19 56 51 52
20 57 51 86
21 57 52 87
22 56 43 44
23 56 43 52
24 56 17 18
25 56 42 43
26 57 42 83
27 28 15 67
28 28 15 68
29 22 15 16
30 28 14 65
31 28 14 66
32 22 14 15
33 30 16 17
34 28 16 69
35 28 16 70
36 56 50 51
37 20 50 60
38 14 59 98
39 30 13 14
40 56 12 17
41 56 12 13
42 56 49 50
43 56 19 20
44 30 19 24
45 14 60 99
46 56 44 49
47 56 44 45
48 56 48 49
49 57 48 85
50 28 35 78
51 28 35 77
52 56 20 21
53 56 11 12
54 56 11 20
55 56 25 26
56 56 25 31
57 30 26 27
58 56 26 28
59 20 28 59
60 56 28 29
61 30 29 35
62 56 29 30
63 56 30 31
64 56 30 32
65 56 31 36
66 30 32 33
67 56 32 38
68 28 33 73
69 28 33 74
70 22 33 34
71 28 34 75
72 28 34 76
73 22 34 35
74 57 36 79
75 56 36 37
76 20 37 58
77 56 37 38
78 57 38 80
79 14 58 97
80 30 22 39
81 56 22 23
82 28 39 81
83 28 39 82
84 30 39 40
85 56 40 41
86 56 40 45
87 56 41 42
88 56 45 46
89 57 46 84
90 56 46 47
91 30 47 56
92 56 47 48
93 14 55 92
94 22 56 57
95 28 56 93
96 28 56 102
97 28 57 96
98 28 57 94
99 28 57 95
100 30 24 25
101 28 24 100
102 28 24 71
103 20 23 55
104 56 21 41
105 56 21 22
106 56 7 13
107 56 7 8
108 30 8 9
109 56 8 10
110 56 10 11
111 56 10 23
112 56 18 19
113 30 18 27
114 28 27 101
115 28 27 72

Angles

1 141 2 1 53
2 140 2 1 6
3 141 6 1 53
4 140 1 2 3
5 152 1 2 61
6 152 3 2 61
7 142 2 3 9
8 140 2 3 4
9 142 4 3 9
10 140 3 4 5
11 140 3 4 7
12 140 5 4 7
13 140 4 5 6
14 152 4 5 62
15 152 6 5 62
16 140 1 6 5
17 142 1 6 54
18 142 5 6 54
19 73 3 9 64
20 73 3 9 63
21 75 3 9 8
22 73 8 9 64
23 73 8 9 63
24 61 63 9 64
25 44 1 53 88
26 73 6 54 89
27 73 6 54 90
28 73 6 54 91
29 61 89 54 90
30 61 89 54 91
31 61 90 54 91
32 140 50 51 52
33 152 50 51 86
34 152 52 51 86
35 140 43 52 51
36 152 43 52 87
37 152 51 52 87
38 140 42 43 44
39 140 42 43 52
40 140 44 43 52
41 140 12 17 18
42 142 12 17 16
43 142 16 17 18
44 140 41 42 43
45 152 41 42 83
46 152 43 42 83
47 68 14 15 67
48 68 14 15 68
49 47 14 15 16
50 68 16 15 67
51 68 16 15 68
52 61 67 15 68
53 73 13 14 65
54 73 13 14 66
55 80 13 14 15
56 68 15 14 65
57 68 15 14 66
58 61 65 14 66
59 80 15 16 17
60 68 15 16 69
61 68 15 16 70
62 73 17 16 69
63 73 17 16 70
64 61 69 16 70
65 140 49 50 51
66 141 49 50 60
67 141 51 50 60
68 44 28 59 98
69 140 7 13 12
70 142 7 13 14
71 142 12 13 14
72 140 11 12 17
73 140 11 12 13
74 140 13 12 17
75 140 44 49 50
76 140 44 49 48
77 140 48 49 50
78 140 18 19 20
79 142 18 19 24
80 142 20 19 24
81 44 50 60 99
82 140 43 44 49
83 140 43 44 45
84 140 45 44 49
85 140 47 48 49
86 152 47 48 85
87 152 49 48 85
88 80 29 35 34
89 73 29 35 78
90 73 29 35 77
91 68 34 35 78
92 68 34 35 77
93 61 77 35 78
94 140 11 20 19
95 140 11 20 21
96 140 19 20 21
97 140 10 11 12
98 140 10 11 20
99 140 12 11 20
100 142 24 25 26
101 142 24 25 31
102 140 26 25 31
103 142 25 26 27
104 140 25 26 28
105 142 27 26 28
106 141 26 28 59
107 140 26 28 29
108 141 29 28 59
109 142 28 29 35
110 140 28 29 30
111 142 30 29 35
112 140 29 30 31
113 140 29 30 32
114 140 31 30 32
115 140 25 31 36
116 140 25 31 30
117 140 30 31 36
118 142 30 32 33
119 140 30 32 38
120 142 33 32 38
121 73 32 33 73
122 73 32 33 74
123 80 32 33 34
124 68 34 33 73
125 68 34 33 74
126 61 73 33 74
127 68 33 34 75
128 68 33 34 76
129 47 33 34 35
130 68 35 34 75
131 68 35 34 76
132 61 75 34 76
133 152 31 36 79
134 140 31 36 37
135 152 37 36 79
136 141 36 37 58
137 140 36 37 38
138 141 38 37 58
139 140 32 38 37
140 152 32 38 80
141 152 37 38 80
142 44 37 58 97
143 142 21 22 39
144 140 21 22 23
145 142 23 22 39
146 73 22 39 81
147 73 22 39 82
148 75 22 39 40
149 73 40 39 81
150 73 40 39 82
151 61 81 39 82
152 142 39 40 41
153 142 39 40 45
154 140 41 40 45
155 140 21 41 42
156 140 21 41 40
157 140 40 41 42
158 140 40 45 44
159 140 40 45 46
160 140 44 45 46
161 152 45 46 84
162 140 45 46 47
163 152 47 46 84
164 142 46 47 56
165 140 46 47 48
166 142 48 47 56
167 44 23 55 92
168 80 47 56 57
169 73 47 56 93
170 73 47 56 102
171 68 57 56 93
172 68 57 56 102
173 61 93 56 102
174 68 56 57 96
175 68 56 57 94
176 68 56 57 95
177 61 94 57 96
178 61 94 57 95
179 61 95 57 96
180 75 19 24 25
181 73 19 24 100
182 73 19 24 71
183 73 25 24 100
184 73 25 24 71
185 61 71 24 100
186 140 10 23 22
187 141 10 23 55
188 141 22 23 55
189 140 20 21 41
190 140 20 21 22
191 140 22 21 41
192 140 4 7 13
193 140 4 7 8
194 140 8 7 13
195 142 7 8 9
196 140 7 8 10
197 142 9 8 10
198 140 8 10 11
199 140 8 10 23
200 140 11 10 23
201 140 17 18 19
202 142 17 18 27
203 142 19 18 27
204 73 18 27 101
205 75 18 27 26
206 73 18 27 72
207 73 26 27 101
208 73 26 27 72
209 61 72 27 101

Dihedrals

1 98 2 1 53 88
2 239 2 1 6 5
3 233 2 1 6 54
4 240 6 1 2 61
5 98 6 1 53 88
6 231 53 1 2 61
7 229 53 1 6 54
8 233 1 2 3 9
9 239 1 2 3 4
10 230 3 2 1 53
11 239 3 2 1 6
12 182 2 3 9 64
13 182 2 3 9 63
14 178 2 3 9 8
15 239 2 3 4 5
16 239 2 3 4 7
17 182 4 3 9 64
18 182 4 3 9 63
19 178 4 3 9 8
20 240 4 3 2 61
21 234 9 3 2 61
22 239 3 4 5 6
23 240 3 4 5 62
24 239 3 4 7 13
25 239 3 4 7 8
26 233 5 4 3 9
27 239 5 4 7 13
28 239 5 4 7 8
29 233 7 4 3 9
30 240 7 4 5 62
31 233 4 5 6 54
32 239 6 5 4 7
33 239 1 6 5 4
34 240 1 6 5 62
35 182 1 6 54 89
36 182 1 6 54 90
37 182 1 6 54 91
38 230 5 6 1 53
39 182 5 6 54 89
40 182 5 6 54 90
41 182 5 6 54 91
42 234 54 6 5 62
43 178 3 9 8 10
44 178 3 9 8 7
45 240 50 51 52 87
46 230 52 51 50 60
47 241 86 51 52 87
48 239 43 52 51 50
49 240 43 52 51 86
50 239 42 43 44 49
51 239 42 43 44 45
52 239 42 43 52 51
53 240 42 43 52 87
54 240 44 43 42 83
55 239 44 43 52 51
56 240 44 43 52 87
57 240 52 43 42 83
58 239 12 17 18 19
59 233 12 17 18 27
60 182 12 17 16 69
61 182 12 17 16 70
62 179 12 17 16 15
63 233 16 17 18 19
64 232 16 17 18 27
65 182 18 17 16 69
66 182 18 17 16 70
67 239 41 42 43 44
68 239 41 42 43 52
69 101 14 15 16 17
70 121 14 15 16 69
71 121 14 15 16 70
72 121 16 15 14 65
73 121 16 15 14 66
74 134 67 15 16 69
75 134 67 15 16 70
76 134 68 15 16 69
77 134 68 15 16 70
78 136 13 14 15 67
79 136 13 14 15 68
80 101 13 14 15 16
81 134 65 14 15 67
82 134 65 14 15 68
83 134 66 14 15 67
84 134 66 14 15 68
85 179 15 16 17 18
86 136 17 16 15 67
87 136 17 16 15 68
88 239 49 50 51 52
89 240 49 50 51 86
90 98 49 50 60 99
91 98 51 50 60 99
92 231 60 50 51 86
93 239 7 13 12 17
94 239 7 13 12 11
95 182 7 13 14 65
96 182 7 13 14 66
97 179 7 13 14 15
98 182 12 13 14 65
99 182 12 13 14 66
100 179 12 13 14 15
101 233 14 13 12 17
102 239 11 12 17 18
103 233 11 12 17 16
104 233 11 12 13 14
105 239 13 12 17 18
106 233 13 12 17 16
107 239 13 12 11 20
108 239 17 12 11 20
109 239 44 49 50 51
110 230 44 49 50 60
111 240 44 49 48 85
112 239 44 49 48 47