LAMMPS data file via write_data, version 16 Mar 2018, timestep = 1000000

250 atoms
69 atom types
292 bonds
60 bond types
569 angles
170 angle types
939 dihedrals
256 dihedral types
85 impropers
5 improper types

-5.0000000000000000e+01 5.0000000000000000e+01 xlo xhi
-5.0000000000000000e+01 5.0000000000000000e+01 ylo yhi
-5.0000000000000000e+01 5.0000000000000000e+01 zlo zhi

Masses

1 1.008
2 15.999
3 12.011
4 12.011
5 12.011
6 12.011
7 12.011
8 1.008
9 12.011
10 12.011
11 12.011
12 1.008
13 12.011
14 12.011
15 1.008
16 12.011
17 15.999
18 14.007
19 14.007
20 14.007
21 1.008
22 1.008
23 12.011
24 15.999
25 15.999
26 1.008
27 12.011
28 15.999
29 12.011
30 12.011
31 12.011
32 12.011
33 12.011
34 14.007
35 12.011
36 12.011
37 12.011
38 12.011
39 1.008
40 12.011
41 15.999
42 1.008
43 12.011
44 15.999
45 15.999
46 12.011
47 12.011
48 12.011
49 12.011
50 1.008
51 12.011
52 15.999
53 1.008
54 1.008
55 12.011
56 12.011
57 12.011
58 14.007
59 12.011
60 12.011
61 32.06
62 12.011
63 14.007
64 12.011
65 1.008
66 12.011
67 1.008
68 22.99
69 35.453

Pair Coeffs # lj/cut/coul/long

1 0 0
2 0.1554 3.16557
3 0.066 3.5
4 0.066 3.5
5 0.066 3.5
6 0.066 3.5
7 0.066 3.5
8 0.03 2.5
9 0.076 3.55
10 0.076 3.55
11 0.076 3.55
12 0.03 2.42
13 0.07 3.55
14 0.07 3.55
15 0.03 2.42
16 0.105 3.75
17 0.21 2.96
18 0.17 3.25
19 0.17 3.25
20 0.17 3.25
21 0 0
22 0 0
23 0.105 3.75
24 0.21 2.96
25 0.17 3
26 0 0
27 0.105 3.75
28 0.21 2.96
29 0.066 3.5
30 0.066 3.5
31 0.066 3.5
32 0.066 3.5
33 0.076 3.55
34 0.17 3.25
35 0.066 3.5
36 0.066 3.5
37 0.066 3.5
38 0.066 3.5
39 0.03 2.5
40 0.07 3.55
41 0.17 3.07
42 0 0
43 0.105 3.75
44 0.21 2.96
45 0.14 2.9
46 0.066 3.5
47 0.066 3.5
48 0.066 3.5
49 0.066 3.5
50 0.03 2.5
51 0.07 3.55
52 0.17 3.12
53 0 0
54 0.03 2.5
55 0.066 3.5
56 0.066 3.5
57 0.066 3.5
58 0.17 3.25
59 0.07 3.55
60 0.07 3.55
61 0.25 3.55
62 0.07 3.55
63 0.17 3.3
64 0.066 3.5
65 0 0
66 0.066 3.5
67 0.015 2.5
68 0.0005 4.07
69 0.71 4.02

Bond Coeffs # harmonic

1 350 1.51
2 570 1.229
3 450 1.364
4 317 1.522
5 214 1.327
6 300 1.79
7 490 1.335
8 317 1.522
9 340 1.09
10 410 1.444
11 400 1.49
12 656 1.25
13 457 1.358
14 553 0.945
15 320 1.41
16 250 1.47
17 400 1.38
18 320 1.45
19 450 1.37
20 450 1.364
21 553 0.945
22 268 1.529
23 222 1.81
24 320 1.41
25 245 1.781
26 337 1.449
27 382 1.448
28 340 1.09
29 317 1.51
30 317 1.51
31 367 1.471
32 337 1.449
33 166 2.038
34 250 1.73
35 250 1.76
36 250 1.76
37 250 1.47
38 200 1.69
39 320 1.45
40 320 1.45
41 450 1.37
42 450 1.364
43 300 1.725
44 300 1.725
45 434 1.01
46 427 1.381
47 600 1
48 350 1.445
49 434 1.01
50 481 1.34
51 434 1.01
52 434 1.01
53 340 1.08
54 549 1.34
55 427 1.433
56 469 1.4
57 367 1.08
58 400 1.45
59 483 1.339
60 500 1.32

Angle Coeffs # harmonic

1 80 121.4
2 80 126
3 80 121
4 70 108
5 70 116
6 80 117.2
7 80 120.4
8 81 111.4
9 83 123.4
10 75 109
11 75 119
12 70 114.2
13 70 116.6
14 70 116.6
15 80 122.9
16 81 111.4
17 70 116
18 80 120.4
19 35 115
20 35 115
21 35 123
22 40 114
23 40 115
24 40 115
25 70 115.5
26 80 125.3
27 35 115
28 70 115.5
29 70 116
30 70 120
31 80 120.4
32 81 111.4
33 85 120
34 70 117
35 70 117
36 80 126
37 80 126
38 35 122
39 80 122.5
40 35 113
41 55 108.5
42 49 105.4
43 35 109
44 35 113
45 63 111.1
46 50 109.5
47 58.35 112.7
48 63 111.1
49 50 114.7
50 50 109.5
51 50 109.5
52 69 109.8
53 69 109.8
54 78 111.7
55 50 109.5
56 63 110.1
57 80 109.7
58 50 114.7
59 56.2 109.47
60 80 111.2
61 33 107.8
62 35 109.5
63 35 109.5
64 35 109.5
65 35 109.5
66 35 109.5
67 35 109.5
68 37.5 110.7
69 51 107.6
70 35 109.5
71 63 111.1
72 63 112.4
73 35 109.5
74 40 109.5
75 40 109.5
76 50 109.5
77 50 109.5
78 50 114.7
79 63 112
80 63 114
81 80 111.2
82 35 109.5
83 80 111.2
84 80 111.2
85 35 109.5
86 63 110.1
87 65 109
88 62 98.9
89 68 103.7
90 62 104.2
91 62 104.2
92 60 109.5
93 83 116.9
94 75 111
95 75 111
96 75 111
97 75 111
98 83 116.9
99 70 126.4
100 46 115.7
101 50 118
102 50 121.9
103 70 112
104 70 108.6
105 35 110.2
106 35 119.8
107 35 120
108 38 118.4
109 35 119.8
110 50 118
111 50 121.9
112 70 118
113 75 109.47
114 51.8 107.2
115 63 111.1
116 35 109.5
117 43.6 106.4
118 35 116
119 50 116
120 50 116
121 63 112
122 70 119.7
123 70 130
124 35 114.5
125 35 117
126 35 117
127 35 119.7
128 60 114
129 35 120
130 70 123
131 70 123
132 70 124
133 75 121.5
134 85 119.4
135 85 120.7
136 35 123.3
137 85 117
138 85 119.7
139 70 119.7
140 63 120
141 70 120
142 70 120
143 70 120
144 70 120
145 70 120
146 70 124
147 75 120
148 85 119.4
149 85 120
150 35 119.1
151 35 120
152 35 120
153 70 120
154 35 116
155 70 116
156 70 116
157 70 120
158 70 121.5
159 70 124
160 75 120
161 50 113
162 43.6 109.5
163 55 114
164 70 120.5
165 35 113
166 50 118
167 70 117
168 70 120.5
169 70 117
170 70 117

Dihedral Coeffs # opls

1 1.6 3.2 0 0
2 0 0.5 0 0
3 0 0 0 0
4 0 0 0 0
5 0.7 -1.5 0 0
6 -0.5 0.2 0 0
7 0.8 -0.76 0 0
8 -0.9 0.3 0 0
9 0 0 0.3 0
10 3 5.5 0 0
11 0 5 0 0
12 1.5 5.5 0 0
13 -2 5 0 0
14 1.5 5.5 0 0
15 4 5 0 0
16 0 0 0.085 0
17 0 0 0 0
18 0 0 0 0
19 -0.65 0 0 0
20 0 0.82 0 0
21 0 0 0 0
22 0 0 0 0
23 0 0.546 0 0
24 0 1.412 0 0
25 5.26 0.82 0 0
26 0 0 0 0
27 1.454 -0.144 -0.775 0
28 0 0 0.275 0
29 0 0 -0.553 0
30 0 0 0.132 0
31 0 0 0 0
32 0 0 0.36 0
33 1.173 0.189 -1.2 0
34 0.65 0 0 0
35 1.816 1.222 1.581 0
36 0 0 0 0
37 0 0 0 0
38 0 0 0.36 0
39 0 0 0.275 0
40 0 0.82 0 0
41 0 0.82 0 0
42 0 0 0 0
43 0 5.124 0 0
44 0 5 0 0
45 4.669 5.124 0 0
46 1.5 5 0 0
47 -2 5 0 0
48 4.669 5.124 0 0
49 4 5 0 0
50 0.4 4.9 0 0
51 0 4.9 0 0
52 0 6.603 0 0
53 0 6.089 0 0
54 0 4.9 0 0
55 0 6.089 0 0
56 0 6.089 0 0
57 2.3 6.089 0 0
58 0 4.9 0 0
59 4.542 6.603 1.045 0
60 2.3 6.089 0 0
61 0 4.9 0 0
62 2.3 6.089 0 0
63 2.3 6.089 0 0
64 0 4.9 0 0
65 2.3 6.089 0 0
66 4.6 0 0 0
67 0 4.9 0 0
68 2.3 6.089 0 0
69 0 4.9 0 0
70 0 4.9 0 0
71 0 4.9 0 0
72 2.3 6.089 0 0
73 0.9 0.23 -0.505 0
74 0 0 0 0
75 2.5 6 0 0
76 3.2 -3 0 0
77 0 0 0 0
78 2 0 0 0
79 0 2.1 0 0
80 0 2.1 0 0
81 0 0.2 0 0
82 0 2.1 0 0
83 0 1.1 0 0
84 0 0.2 0 0
85 0 14 0 0
86 0 14 0 0
87 0 14 0 0
88 0 14 0 0
89 -0.356 -0.174 0.492 0
90 0 0 0.352 0
91 -0.9 0 0 0
92 -0.9 0 0 0
93 0 0 0.3 0
94 0 0 0.3 0
95 5.519 -6.7 0.581 0
96 2.722 -5.154 0 0
97 0 1.682 0 0
98 0 1.682 0 0
99 3 3 0 0
100 -4.344 -1.714 0 0
101 1.711 -0.5 0.663 0
102 1.428 0.086 0.029 0
103 -0.55 0 1 0
104 -6.18 0 0 0
105 -2.06 -0.313 0.315 0
106 -4.344 -1.714 0 0
107 -9 2 0.8 0
108 0 0 -0.1 0
109 -1.697 -0.456 0.585 0
110 9.508 0 0 0
111 -1.552 0 0 0
112 4.319 0 0 0
113 8 0 0 0
114 6.28 -1.467 2.03 0
115 0 0 0.468 0
116 1.3 -0.05 0.2 0
117 2.619 -0.62 0.258 0
118 0 0 0.4 0
119 2.392 -0.674 0.55 0
120 0.845 -0.962 0.713 0
121 0 0 0.3 0
122 2.732 -0.229 0.485 0
123 0 0 0.452 0
124 -0.55 0 0 0
125 0 0 0.468 0
126 -0.25 0 0 0
127 2 0 0 0
128 0 0 0.4 0
129 11.035 -0.968 0.27 0
130 -1.013 -0.709 0.473 0
131 -0.8 0 0 0
132 0 0 0.464 0
133 0.845 -0.962 0.713 0
134 0 0 0.3 0
135 0 0 0.366 0
136 0 0 0.462 0
137 0 0 0.384 0
138 1 0 0 0
139 0.925 -0.576 0.677 0
140 1.941 -0.836 0.935 0
141 0 0 0.647 0
142 0 0 0.558 0
143 0 0 0.647 0
144 -0.521 -2.018 1.996 0
145 -0.5 -1.5 1 0
146 -1.22 -0.126 0.422 0
147 0.65 -0.25 0.67 0
148 0 0 0.76 0
149 0 0 0.198 0
150 0 0 0.76 0
151 0 0 0.76 0
152 0 0 0 0
153 -2.365 0.912 -0.85 0
154 -1.737 1.251 -3.501 0
155 0 0 0 0
156 0 0.462 0 0
157 4.753 -0.734 0 0
158 0 0 0 0
159 0 0 0 0
160 0 0 0 0
161 0 0 0 0
162 0 0 0 0
163 0.416 -0.128 0.695 0
164 -0.19 -0.417 0.418 0
165 0 0 0.56 0
166 0 0 0.4 0
167 0 0 0.56 0
168 1.711 -0.5 0.663 0
169 0 0 0.468 0
170 0.5 0 0 0
171 2.817 -0.169 0.543 0
172 0.346 0.405 -0.904 0
173 0 0 0.3 0
174 0 0 0.318 0
175 0 0 -0.372 0
176 0 -8 0 0
177 0 -8 0 0
178 0 0 0 0
179 0 0 0 0
180 -0.5 0.5 -0.5 0
181 0 -0.4 0 0
182 0 0 0 0
183 1.438 -0.124 0.264 0
184 0 0 0.347 0
185 0 0 0.302 0
186 0 0 0.261 0
187 0 0 0.462 0
188 0 -7.414 1.705 0
189 0 0.6 0 0
190 1.6 5.1 0 0
191 0 0 0.3 0
192 0 0 0.3 0
193 0.65 -0.25 0.67 0
194 0 0 0.76 0
195 -3.5 3 0 0
196 0 2.5 0 0
197 0 3 0 0
198 0.4 5.5 0 0
199 3 3 0 0
200 0 2.1 0 0
201 0 2.1 0 0
202 0 2.1 0 0
203 0 2.1 0 0
204 0 0 0.3 0
205 0 0 0.3 0
206 0 0 0.3 0
207 -7.582 3.431 3.198 0
208 0 2.03 0 0
209 0 -8 0 0
210 0 -8 0 0
211 0 14 0 0
212 0 14 0 0
213 0 14 0 0
214 0 14 0 0
215 0 14 0 0
216 0 14 0 0
217 0 14 0 0
218 0 14 0 0
219 0 14 0 0
220 -1.6 14 0 0
221 0 14 0 0
222 0 14 0 0
223 0 14 0 0
224 0.205 -0.531 0 0
225 0 0 -0.372 0
226 0 0 -0.372 0
227 1.241 3.353 -0.286 0
228 0 7.25 0 0
229 0 7.25 0 0
230 0 7.25 0 0
231 0 7.25 0 0
232 0 7.25 0 0
233 0 7.25 0 0
234 0 7.25 0 0
235 0 7.25 0 0
236 0 7.25 0 0
237 0 7.25 0 0
238 0 7.25 0 0
239 0 7.25 0 0
240 0 7.25 0 0
241 0 7.25 0 0
242 0 0 0 0
243 0 7.25 0 0
244 0 7.25 0 0
245 0 7.25 0 0
246 0 7.25 0 0
247 0 7.25 0 0
248 0 7.25 0 0
249 1.816 1.222 1.581 0
250 0 0.82 0 0
251 1 0 0 0
252 6.28 -1.467 2.03 0
253 1.428 0.086 0.029 0
254 1.438 -0.124 0.264 0
255 1.3 -0.05 0.2 0
256 1.3 -0.05 0.2 0

Improper Coeffs # harmonic

1 10.5 0
2 10.5 0
3 1 0
4 15 0
5 1.1 0

Atoms # full

150 1 8 5.9999999999999998e-02 1.8703090709901584e+01 -7.4094368193055011e+00 3.8133836622913280e+00 0 0 0
149 1 50 2.9999999999999999e-02 2.0407586209993752e+01 -6.7285990312476338e+00 5.6330665710586816e+00 0 0 0
185 1 8 5.9999999999999998e-02 6.8517329501385058e+00 -6.6209858985533454e-01 5.2592333495095369e+00 0 0 0
164 1 8 5.9999999999999998e-02 1.7133174031055269e+01 -1.4035989598634646e+00 5.3593483662322337e+00 0 0 0
186 1 8 5.9999999999999998e-02 7.2312624408137047e+00 -1.3712110061035523e+00 6.7907273489439026e+00 0 0 0
182 1 8 5.9999999999999998e-02 9.3143748492550813e+00 -5.3129727031837126e-01 7.8312221969088638e+00 0 0 0
44 1 4 -1.2000000000000000e-01 7.6226415643073064e+00 -7.9326198357173683e-01 5.9968559966302637e+00 0 0 0
178 1 8 5.9999999999999998e-02 8.0231236674894237e+00 -3.4620424088663966e+00 5.1118768332666518e+00 0 0 0
39 1 9 0.0000000000000000e+00 8.7354477109305790e+00 -1.5082989731602043e+00 5.3209600927962866e+00 0 0 0
38 1 4 -1.2000000000000000e-01 8.5904462739773546e+00 -2.7873387306932464e+00 4.5330943462553224e+00 0 0 0
37 1 4 -1.2000000000000000e-01 9.8695951440465777e+00 -3.3192553196405878e+00 3.9104358268953980e+00 0 0 0
34 1 9 0.0000000000000000e+00 1.0667090889142905e+01 -2.1858975965119343e+00 3.2484868073009654e+00 0 0 0
36 1 10 -1.1500000000000000e-01 1.2944253624688857e+01 -2.0010351216143856e+00 2.2640573946374660e+00 0 0 0
30 1 9 0.0000000000000000e+00 1.3304449568417201e+01 -1.0966475636861819e+00 3.2092895572008273e+00 0 0 0
177 1 8 5.9999999999999998e-02 1.0479879940383594e+01 -3.7359117996660736e+00 4.6759252548355059e+00 0 0 0
33 1 14 0.0000000000000000e+00 1.0883169629357692e+01 -1.0252758302208846e+00 4.0402974818927628e+00 0 0 0
40 1 14 0.0000000000000000e+00 1.0005810277768409e+01 -8.2481405574875066e-01 5.1716543152445427e+00 0 0 0
31 1 5 -5.9999999999999998e-02 1.2273434579493708e+01 -3.4099471173205242e-01 4.0399270309333311e+00 0 0 0
172 1 8 5.9999999999999998e-02 1.2644216509238582e+01 -4.8419322159760902e-01 4.9825860607946586e+00 0 0 0
156 1 8 5.9999999999999998e-02 1.7604142733744080e+01 -3.6398365965355617e+00 5.2755050003307060e+00 0 0 0
151 1 8 5.9999999999999998e-02 1.8079475843152149e+01 -6.3436202325507587e+00 5.0274548171927824e+00 0 0 0
159 1 8 5.9999999999999998e-02 1.5892162004768283e+01 -5.5251631262710994e+00 4.5132803261983447e+00 0 0 0
179 1 8 5.9999999999999998e-02 7.9229891233523393e+00 -2.5139571491895918e+00 3.6958195480533083e+00 0 0 0
35 1 4 -1.2000000000000000e-01 1.1549711153715329e+01 -2.2840294377126953e+00 2.0472324565818623e+00 0 0 0
176 1 8 5.9999999999999998e-02 9.6551068161065068e+00 -4.1454479042814016e+00 3.2884096985387483e+00 0 0 0
175 1 12 1.1500000000000000e-01 1.3684692966415504e+01 -2.5858716844766150e+00 1.7813989567192225e+00 0 0 0
173 1 8 5.9999999999999998e-02 1.1123303544405065e+01 -1.8724533482615160e+00 1.1623611616677088e+00 0 0 0
174 1 8 5.9999999999999998e-02 1.1476624311535424e+01 -3.3670829417159527e+00 1.8694531772930558e+00 0 0 0
148 1 50 2.9999999999999999e-02 2.0998161881332639e+01 -6.3933790458130941e+00 4.0106580794613045e+00 0 0 0
6 1 45 -4.0000000000000002e-01 2.0264760800536351e+01 -4.7162960811035024e+00 5.0315109247266854e+00 0 0 0
2 1 4 -1.2000000000000000e-01 1.8788282239925866e+01 -6.4204274406324044e+00 4.1829534870178700e+00 0 0 0
1 1 47 1.4000000000000001e-01 2.0209199679858820e+01 -6.1359040302528252e+00 4.7438499233030038e+00 0 0 0
158 1 8 5.9999999999999998e-02 1.4808328149320809e+01 -5.2450091875738893e+00 3.2414537271426336e+00 0 0 0
166 1 8 5.9999999999999998e-02 1.4954043873728974e+01 -1.1592861623189574e+00 4.5091477759094749e+00 0 0 0
18 1 5 -5.9999999999999998e-02 1.4802437831734226e+01 -8.3299503096136640e-01 3.5418987633660195e+00 0 0 0
14 1 4 -1.2000000000000000e-01 1.7703702789746732e+01 -1.7789376225622462e+00 4.4674049466576307e+00 0 0 0
11 1 45 -4.0000000000000002e-01 1.5769471136851520e+01 -2.9492066648455988e+00 2.5480929115987130e+00 0 0 0
12 1 48 1.7000000000000001e-01 1.5873246446603416e+01 -1.4852194949609547e+00 2.7044647805240385e+00 0 0 0
162 1 50 2.9999999999999999e-02 1.5830893874043589e+01 -1.1612584719945003e+00 1.6596816396680523e+00 0 0 0
163 1 8 5.9999999999999998e-02 1.7969838393238231e+01 -1.2685891383922794e+00 2.4213306040442339e+00 0 0 0
13 1 5 -5.9999999999999998e-02 1.7278499228406027e+01 -1.0547929543940633e+00 3.2554107577398961e+00 0 0 0
160 1 8 5.9999999999999998e-02 1.6838327308970968e+01 -5.2934985090688507e+00 1.5430231768897780e+00 0 0 0
153 1 8 5.9999999999999998e-02 1.8753216610701180e+01 -3.4596283480454777e+00 2.3865177578510788e+00 0 0 0
157 1 50 2.9999999999999999e-02 1.5425519817636484e+01 -3.3225101765747307e+00 4.5145908226546840e+00 0 0 0
5 1 47 1.4000000000000001e-01 2.0071075781871521e+01 -3.8492605525779937e+00 3.9845003064784783e+00 0 0 0
154 1 50 2.9999999999999999e-02 2.0382149028005145e+01 -2.7962018017964727e+00 4.1338668232141318e+00 0 0 0
9 1 4 -1.2000000000000000e-01 1.5866130687397156e+01 -5.1080320152771375e+00 3.5194540504096810e+00 0 0 0
8 1 48 1.7000000000000001e-01 1.6136991974461839e+01 -3.6108090759680764e+00 3.7637550469687437e+00 0 0 0
161 1 8 5.9999999999999998e-02 1.6641375759839065e+01 -6.7819263278800577e+00 2.4825626621056882e+00 0 0 0
10 1 4 -1.2000000000000000e-01 1.6910708392086281e+01 -5.7185874307868998e+00 2.5456088368696230e+00 0 0 0
7 1 5 -5.9999999999999998e-02 1.7564453629495553e+01 -3.2813669215898025e+00 4.2473438684219920e+00 0 0 0
155 1 50 2.9999999999999999e-02 2.0803666172615806e+01 -4.1367796000592270e+00 3.1645149383866857e+00 0 0 0
4 1 5 -5.9999999999999998e-02 1.8672160605538661e+01 -3.9588353011482429e+00 3.3682996591020764e+00 0 0 0
3 1 5 -5.9999999999999998e-02 1.8364803417359873e+01 -5.4343548521722465e+00 3.0746227481505932e+00 0 0 0
152 1 8 5.9999999999999998e-02 1.8970427832544303e+01 -5.8490575228122719e+00 2.2424251338340202e+00 0 0 0
165 1 8 5.9999999999999998e-02 1.8755449974252322e+01 -1.5808938665901637e+00 4.5670015861340145e+00 0 0 0
180 1 8 5.9999999999999998e-02 1.1318038088134953e+01 -4.3480980242683615e-01 6.7302008328732867e+00 0 0 0
247 1 8 5.9999999999999998e-02 5.8725840367011033e+00 2.4228656219164925e+01 -8.3096103482256787e+00 0 0 0
144 1 4 -1.2000000000000000e-01 6.8433411225785568e+00 2.4478989440947437e+01 -8.0427343790048340e+00 0 0 0
249 1 8 5.9999999999999998e-02 6.6783510884449013e+00 2.6126264285725146e+01 -6.5942945268111961e+00 0 0 0
250 1 8 5.9999999999999998e-02 6.5726101836661499e+00 2.6669877942363399e+01 -8.2841273775782618e+00 0 0 0
248 1 8 5.9999999999999998e-02 7.3765365443786655e+00 2.4205811504706805e+01 -8.9099276030355359e+00 0 0 0
141 1 14 0.0000000000000000e+00 9.4044693291219410e+00 2.5204929486123131e+01 -6.8798857625242267e+00 0 0 0
145 1 4 -1.2000000000000000e-01 7.0331322463159998e+00 2.5941374727748187e+01 -7.6191392269109199e+00 0 0 0
147 1 44 -4.6999999999999997e-01 9.0150950309303699e+00 2.6739894032210934e+01 -8.6599579077882325e+00 0 0 0
146 1 43 4.6999999999999997e-01 8.5285208630345046e+00 2.6195454030437634e+01 -7.6697931470298775e+00 0 0 0
242 1 15 1.1500000000000000e-01 1.0651446103822680e+01 2.7619695338629761e+01 -6.9420457221968226e+00 0 0 0
143 1 4 -1.2000000000000000e-01 7.4213635241123974e+00 2.3628058697037954e+01 -6.9690221521065201e+00 0 0 0
245 1 8 5.9999999999999998e-02 7.3602450116483107e+00 2.2576558930915670e+01 -7.2425733211800321e+00 0 0 0
196 1 8 5.9999999999999998e-02 4.7880170629652925e+00 1.1408520785376908e+01 -4.0361629961899990e+00 0 0 0
76 1 4 -1.2000000000000000e-01 5.7864771225789164e+00 1.1725600687972120e+01 -4.0643359496662113e+00 0 0 0
197 1 8 5.9999999999999998e-02 6.1200911803200482e+00 1.1569731173071990e+01 -5.1551480492569786e+00 0 0 0
195 1 8 5.9999999999999998e-02 6.3989177635975860e+00 9.7427929880201010e+00 -3.5376448501798681e+00 0 0 0
75 1 4 -1.2000000000000000e-01 6.7096112806937480e+00 1.0778341616921342e+01 -3.2789728277799068e+00 0 0 0
77 1 66 1.4000000000000001e-01 6.0288573378102068e+00 1.3225156121894642e+01 -3.6437107878932005e+00 0 0 0
205 1 67 5.9999999999999998e-02 3.3463069481480070e+00 1.2851572426878148e+01 -4.0163556821032058e+00 0 0 0
73 1 5 -5.9999999999999998e-02 6.5983606725047999e+00 1.1086794816156869e+01 -1.7858943843525217e+00 0 0 0
198 1 67 5.9999999999999998e-02 7.0408894490132257e+00 1.3487388312452129e+01 -4.0043282526663546e+00 0 0 0
78 1 5 -5.9999999999999998e-02 5.9010705274498712e+00 1.3513655317606284e+01 -2.1618040004466477e+00 0 0 0
79 1 4 -1.2000000000000000e-01 4.4699373551827897e+00 1.3506952081887764e+01 -1.6632555922276637e+00 0 0 0
200 1 8 5.9999999999999998e-02 4.0006186551110758e+00 1.2529454538813980e+01 -1.5141651780153778e+00 0 0 0
192 1 8 5.9999999999999998e-02 5.6643443666143396e+00 1.0734476226741839e+01 -1.3994319058173403e+00 0 0 0
72 1 48 1.7000000000000001e-01 6.8360110547878143e+00 1.2526294454636368e+01 -1.4123015108388262e+00 0 0 0
201 1 8 5.9999999999999998e-02 4.4191602380607486e+00 1.3802435347562271e+01 -6.6768710016909960e-01 0 0 0
193 1 8 5.9999999999999998e-02 7.7515122818717428e+00 9.2464658177054115e+00 -1.4326726404973704e+00 0 0 0
194 1 8 5.9999999999999998e-02 7.7578207186164079e+00 1.1039915854710220e+01 -3.6415217335589443e+00 0 0 0
71 1 45 -4.0000000000000002e-01 8.2229360118710861e+00 1.2932606194318902e+01 -1.6701866354472414e+00 0 0 0
68 1 14 0.0000000000000000e+00 1.1029916052559066e+01 1.3927720354823137e+01 -1.4314200001249751e+00 0 0 0
59 1 51 2.0000000000000001e-01 9.2380521937165092e+00 1.2108936116524868e+01 -1.2536178993538145e+00 0 0 0
60 1 14 0.0000000000000000e+00 1.0604569640427263e+01 1.2649783694400448e+01 -1.0687698327467641e+00 0 0 0
74 1 56 2.0499999999999999e-01 7.4897888514932758e+00 1.0234152280467576e+01 -9.1912769032783836e-01 0 0 0
127 1 14 0.0000000000000000e+00 1.4445210117677268e+01 2.4596598085930694e+01 -3.3017495619913748e+00 0 0 0
204 1 67 5.9999999999999998e-02 2.9699852951003081e+00 1.4383099015841953e+01 -4.6431668448000085e+00 0 0 0
82 1 63 -7.8000000000000003e-01 5.0584539929540275e+00 1.3956976237082946e+01 -4.3878034404473416e+00 0 0 0
206 1 65 3.8000000000000000e-01 5.2685538187142615e+00 1.4871571368629914e+01 -4.6162507745538015e+00 0 0 0
225 1 8 5.9999999999999998e-02 7.3464605060200832e+00 1.6702590698086375e+01 -4.8218439151366610e+00 0 0 0
226 1 8 5.9999999999999998e-02 6.4869554726038476e+00 1.7631175388184420e+01 -3.8604946039674157e+00 0 0 0
81 1 64 8.0000000000000002e-02 3.6621990238610884e+00 1.3862659003236294e+01 -3.9551941222121805e+00 0 0 0
199 1 8 5.9999999999999998e-02 6.4219865686402855e+00 1.4548602269194165e+01 -2.1473229625834547e+00 0 0 0
80 1 4 -1.2000000000000000e-01 3.5268601348544184e+00 1.4402982342069439e+01 -2.4957520309950505e+00 0 0 0
202 1 8 5.9999999999999998e-02 3.7686109469121867e+00 1.5472545196347760e+01 -2.3318008686090841e+00 0 0 0
203 1 8 5.9999999999999998e-02 2.4958781824055589e+00 1.4211059468928562e+01 -2.1041547919143544e+00 0 0 0
224 1 8 5.9999999999999998e-02 7.1285791958024713e+00 1.9592803359938305e+01 -4.8450752324810189e+00 0 0 0
110 1 4 -1.2000000000000000e-01 7.5131488330717220e+00 1.7529171074719951e+01 -4.1813018569619276e+00 0 0 0
228 1 8 5.9999999999999998e-02 8.2738684103472817e+00 1.7620533355942218e+01 -2.0548183083396743e+00 0 0 0
227 1 8 5.9999999999999998e-02 7.9682890965694018e+00 1.6091038991711905e+01 -2.8447054651093238e+00 0 0 0
219 1 15 1.1500000000000000e-01 9.5023447883254395e+00 1.4337867054315740e+01 -2.9253989599906589e+00 0 0 0
111 1 4 -1.2000000000000000e-01 8.4047083651023904e+00 1.7098407226025728e+01 -2.9934839375552564e+00 0 0 0
101 1 13 -1.1500000000000000e-01 1.0314113578783481e+01 1.4736034063749525e+01 -2.3370311873449654e+00 0 0 0
109 1 4 -1.2000000000000000e-01 8.0075584678868488e+00 1.8804686120278916e+01 -4.8667914793427549e+00 0 0 0
222 1 8 5.9999999999999998e-02 9.0213704949346951e+00 1.9560267743757233e+01 -3.1319870831981715e+00 0 0 0
105 1 5 -5.9999999999999998e-02 9.8534588164459915e+00 1.6988276431959921e+01 -3.5004701440602299e+00 0 0 0
100 1 14 0.0000000000000000e+00 1.0666027244393602e+01 1.6082595281882778e+01 -2.6465475952282396e+00 0 0 0
220 1 8 5.9999999999999998e-02 9.6867986329286868e+00 1.6462223277883822e+01 -4.4817554360195375e+00 0 0 0
223 1 8 5.9999999999999998e-02 8.0669661517827098e+00 1.8642335466197103e+01 -5.9763985576071699e+00 0 0 0
108 1 5 -5.9999999999999998e-02 9.2743779027667301e+00 1.9402424714070296e+01 -4.1767729281434018e+00 0 0 0
106 1 5 -5.9999999999999998e-02 1.0415583282404748e+01 1.8311049699075902e+01 -3.9951790455896363e+00 0 0 0
221 1 8 5.9999999999999998e-02 1.0892943814364237e+01 1.8107540045040526e+01 -4.9942898650351424e+00 0 0 0
99 1 14 0.0000000000000000e+00 1.1815340097783887e+01 1.6640333773025993e+01 -2.0156583769407677e+00 0 0 0
107 1 14 0.0000000000000000e+00 1.1510028553129359e+01 1.8900858620766918e+01 -3.1413413000648069e+00 0 0 0
104 1 14 0.0000000000000000e+00 1.2230111112541790e+01 1.8033709730129505e+01 -2.2040816478039553e+00 0 0 0
112 1 14 0.0000000000000000e+00 1.1858041167544155e+01 2.0222740774020821e+01 -3.2422644786299677e+00 0 0 0
115 1 14 0.0000000000000000e+00 9.8530287129648908e+00 2.0779742258373350e+01 -4.6073350199131999e+00 0 0 0
96 1 14 0.0000000000000000e+00 1.2608799553250213e+01 1.5827485594418237e+01 -1.1807340232293626e+00 0 0 0
113 1 14 0.0000000000000000e+00 1.3070079309342841e+01 2.0665639000019596e+01 -2.6010925309277160e+00 0 0 0
103 1 51 2.0000000000000001e-01 1.3469077200662142e+01 1.8431733873475313e+01 -1.6716628915641716e+00 0 0 0
114 1 14 0.0000000000000000e+00 1.3853590088377102e+01 1.9740510074658975e+01 -1.8062600576866836e+00 0 0 0
116 1 14 0.0000000000000000e+00 1.1116572600247721e+01 2.1120231679003933e+01 -4.0742064220822369e+00 0 0 0
97 1 51 2.0000000000000001e-01 1.3756705029106831e+01 1.6333390902428960e+01 -5.9274633100386398e-01 0 0 0
244 1 15 1.1500000000000000e-01 8.1076929014471091e+00 2.1354787785475910e+01 -5.9312586863743340e+00 0 0 0
69 1 14 0.0000000000000000e+00 1.2289592022320436e+01 1.4457259629461497e+01 -9.7196863589656446e-01 0 0 0
102 1 45 -4.0000000000000002e-01 1.4218648225346858e+01 1.7575681416527267e+01 -9.2287266546372482e-01 0 0 0
237 1 15 1.1500000000000000e-01 1.5682340798294469e+01 1.9506019203494500e+01 -6.6160884654775065e-01 0 0 0
121 1 13 -1.1500000000000000e-01 1.5152952975946166e+01 2.0175311060399057e+01 -1.3091837317407786e+00 0 0 0
122 1 13 -1.1500000000000000e-01 1.5490080418792553e+01 2.1535950269823690e+01 -1.3497714100582767e+00 0 0 0
128 1 13 -1.1500000000000000e-01 1.5230929152499520e+01 2.3732575055364450e+01 -2.4472011970761498e+00 0 0 0
246 1 8 5.9999999999999998e-02 6.8130381715603603e+00 2.3779846297691453e+01 -6.0194230609366590e+00 0 0 0
243 1 15 1.1500000000000000e-01 1.2641479878596670e+01 2.8346755803842882e+01 -5.8813323099455159e+00 0 0 0
138 1 13 -1.1500000000000000e-01 1.2316375981190726e+01 2.7297335814760793e+01 -5.7278858471716658e+00 0 0 0
137 1 13 -1.1500000000000000e-01 1.1158084932272919e+01 2.6868574735748645e+01 -6.4084598151822894e+00 0 0 0
136 1 14 0.0000000000000000e+00 1.0618769450113554e+01 2.5602780073300742e+01 -6.2192099093740820e+00 0 0 0
131 1 14 0.0000000000000000e+00 1.3001308112471248e+01 2.6369471422322910e+01 -4.9708621034820535e+00 0 0 0
124 1 14 0.0000000000000000e+00 1.3604656460959088e+01 2.1969984548998294e+01 -2.8929212018707875e+00 0 0 0
142 1 14 0.0000000000000000e+00 8.8573937327712446e+00 2.3929330305056798e+01 -6.5053416685035073e+00 0 0 0
139 1 13 -1.1500000000000000e-01 9.0540669020262659e+00 2.1714198047125972e+01 -5.4036065654489880e+00 0 0 0
125 1 14 0.0000000000000000e+00 1.2846245230589584e+01 2.2844940417548610e+01 -3.7405020135970584e+00 0 0 0
135 1 14 0.0000000000000000e+00 1.1607302989707833e+01 2.2425600441762413e+01 -4.3851338822387929e+00 0 0 0
132 1 14 0.0000000000000000e+00 1.2534383664006215e+01 2.5060454304642509e+01 -4.7620084248802970e+00 0 0 0
126 1 14 0.0000000000000000e+00 1.3245151937305769e+01 2.4172022319923816e+01 -3.9483739789348493e+00 0 0 0
133 1 14 0.0000000000000000e+00 1.1347299764666355e+01 2.4629817448762736e+01 -5.4076059676400385e+00 0 0 0
134 1 14 0.0000000000000000e+00 1.0804254396306558e+01 2.3345171869454909e+01 -5.1782139507862288e+00 0 0 0
140 1 14 0.0000000000000000e+00 9.5346307963245032e+00 2.3009371459438398e+01 -5.6723947322255102e+00 0 0 0
241 1 15 1.1500000000000000e-01 1.4532649252249886e+01 2.7804229337325765e+01 -4.4975348387733245e+00 0 0 0
130 1 13 -1.1500000000000000e-01 1.4193605481071879e+01 2.6805089772676158e+01 -4.4074144316328843e+00 0 0 0
238 1 15 1.1500000000000000e-01 1.6423518451363172e+01 2.1800457874571762e+01 -7.8588580817867149e-01 0 0 0
123 1 14 0.0000000000000000e+00 1.4779704388229947e+01 2.2402898071141376e+01 -2.2609143413582675e+00 0 0 0
239 1 15 1.1500000000000000e-01 1.6086140164292718e+01 2.4153064462088629e+01 -2.0115625256272942e+00 0 0 0
129 1 13 -1.1500000000000000e-01 1.4973020855462622e+01 2.5903087729783682e+01 -3.6327175665524254e+00 0 0 0
240 1 15 1.1500000000000000e-01 1.5924135193701140e+01 2.6154428901411912e+01 -3.2801538814923958e+00 0 0 0
191 1 50 2.9999999999999999e-02 6.7796608143216339e+00 1.2591740628512035e+01 -3.0851773785567133e-01 0 0 0
58 1 14 0.0000000000000000e+00 8.8945581731044463e+00 1.0767014947310255e+01 -7.0179943080931251e-01 0 0 0
61 1 14 0.0000000000000000e+00 1.1542073644921558e+01 1.1789439384127272e+01 -4.0419618769784504e-01 0 0 0
70 1 14 0.0000000000000000e+00 1.3102881116372982e+01 1.3616572523676833e+01 -2.3164259561352324e-01 0 0 0
56 1 14 0.0000000000000000e+00 9.9130057223606922e+00 9.9428560459072131e+00 -1.6776049397293583e-01 0 0 0
66 1 14 0.0000000000000000e+00 1.2807259067140567e+01 1.2262256655456687e+01 -9.7852664458328853e-03 0 0 0
183 1 8 5.9999999999999998e-02 8.0413396360877822e+00 1.3994308637342125e+00 5.8759861813115730e+00 0 0 0
187 1 15 1.1500000000000000e-01 1.0359592102463774e+01 1.6863047319315889e+00 3.5191574675468265e+00 0 0 0
45 1 62 1.0249999999999999e-01 1.1653657205007899e+01 3.4003869461029601e+00 3.2759668821346319e+00 0 0 0
29 1 14 0.0000000000000000e+00 1.2936133377444991e+01 3.9076880480133473e+00 3.2211382065989844e+00 0 0 0
28 1 14 0.0000000000000000e+00 1.3230268975995834e+01 5.2895110061324599e+00 2.9027150268491830e+00 0 0 0
20 1 14 0.0000000000000000e+00 1.4006322920709549e+01 2.9879667936415610e+00 3.3076905276109447e+00 0 0 0
19 1 14 0.0000000000000000e+00 1.3788500525590129e+01 1.5742670164177146e+00 3.5033352273541754e+00 0 0 0
32 1 14 0.0000000000000000e+00 1.2433523738752129e+01 1.1335520890943234e+00 3.6249780523665920e+00 0 0 0
46 1 13 -1.1500000000000000e-01 1.1323565001928701e+01 2.0122913837333765e+00 3.4263429877062967e+00 0 0 0
49 1 61 -2.0499999999999999e-01 1.0326646285464877e+01 4.4704836062633468e+00 3.0443576212803665e+00 0 0 0
47 1 14 0.0000000000000000e+00 1.2326844737456602e+01 6.2009228654025490e+00 2.3485575302479087e+00 0 0 0
48 1 62 1.0249999999999999e-01 1.0992510991005240e+01 5.8329921878788422e+00 2.1155030742642857e+00 0 0 0
188 1 15 1.1500000000000000e-01 8.9670975194845681e+00 6.2868623436310616e+00 1.4785119871266275e+00 0 0 0
50 1 13 -1.1500000000000000e-01 1.0025633093358149e+01 6.6817747733171560e+00 1.5707484738503168e+00 0 0 0
233 1 8 5.9999999999999998e-02 1.0983322543897641e+01 2.8011268817882726e+00 6.9813380324628938e+00 0 0 0
181 1 8 5.9999999999999998e-02 1.0721909588848840e+01 9.6387796217534094e-01 5.6941498737273264e+00 0 0 0
42 1 5 -5.9999999999999998e-02 9.4033623011714038e+00 3.7283869452714269e-01 7.3087253583144500e+00 0 0 0
27 1 51 2.0000000000000001e-01 1.4595329128627547e+01 5.6701937138745020e+00 2.8782615444055066e+00 0 0 0
17 1 14 0.0000000000000000e+00 1.4909119099596939e+01 7.0127167001265056e-01 3.5422153082454746e+00 0 0 0
15 1 14 0.0000000000000000e+00 1.7366225696462287e+01 4.0022530113184351e-01 3.2436127851719783e+00 0 0 0
170 1 8 5.9999999999999998e-02 1.8960424369970088e+01 2.3976059184783662e+00 1.5605113818911749e+00 0 0 0
21 1 51 2.0000000000000001e-01 1.5343366749298060e+01 3.5208810902871197e+00 3.2327470084406320e+00 0 0 0
26 1 45 -4.0000000000000002e-01 1.5595414420662195e+01 4.8733050600420054e+00 3.3508772118900363e+00 0 0 0
16 1 14 0.0000000000000000e+00 1.6253979181554200e+01 1.2534733330718120e+00 3.3393689881806017e+00 0 0 0
22 1 14 0.0000000000000000e+00 1.6430621973584763e+01 2.6403116271227023e+00 3.2109286131969372e+00 0 0 0
168 1 8 5.9999999999999998e-02 1.8146786107401631e+01 3.6734857424711831e+00 4.0561170115236527e+00 0 0 0
23 1 4 -1.2000000000000000e-01 1.7830026381704350e+01 3.1830022421070838e+00 3.0529852268170772e+00 0 0 0
167 1 8 5.9999999999999998e-02 1.7813734453580743e+01 4.0385869174303517e+00 2.4532213066120394e+00 0 0 0
24 1 4 -1.2000000000000000e-01 1.8943658154041533e+01 2.2505945487970265e+00 2.5930267858588523e+00 0 0 0
169 1 8 5.9999999999999998e-02 1.9857520575034584e+01 2.5933835810342352e+00 2.9573005292591295e+00 0 0 0
25 1 10 -1.1500000000000000e-01 1.8739598058724738e+01 8.3405977493333172e-01 3.0163217050967264e+00 0 0 0
120 1 52 -6.8300000000000005e-01 6.8378374141009512e+00 9.9730381382979303e+00 3.6017830259913397e-01 0 0 0