LAMMPS data file via write_data, version 16 Mar 2018, timestep = 1000000

130 atoms
48 atom types
142 bonds
39 bond types
265 angles
122 angle types
385 dihedrals
187 dihedral types
39 impropers
5 improper types

-5.0000000000000000e+01 5.0000000000000000e+01 xlo xhi
-5.0000000000000000e+01 5.0000000000000000e+01 ylo yhi
-5.0000000000000000e+01 5.0000000000000000e+01 zlo zhi

Masses

1 1.008
2 15.999
3 12.011
4 12.011
5 12.011
6 12.011
7 12.011
8 1.008
9 12.011
10 12.011
11 12.011
12 1.008
13 12.011
14 12.011
15 1.008
16 12.011
17 15.999
18 14.007
19 14.007
20 14.007
21 1.008
22 1.008
23 12.011
24 15.999
25 15.999
26 1.008
27 12.011
28 15.999
29 12.011
30 12.011
31 12.011
32 12.011
33 12.011
34 14.007
35 12.011
36 12.011
37 12.011
38 12.011
39 1.008
40 12.011
41 15.999
42 1.008
43 12.011
44 15.999
45 14.007
46 12.011
47 22.99
48 35.453

Pair Coeffs # lj/cut/coul/long

1 0 0
2 0.1554 3.16557
3 0.066 3.5
4 0.066 3.5
5 0.066 3.5
6 0.066 3.5
7 0.066 3.5
8 0.03 2.5
9 0.076 3.55
10 0.076 3.55
11 0.076 3.55
12 0.03 2.42
13 0.07 3.55
14 0.07 3.55
15 0.03 2.42
16 0.105 3.75
17 0.21 2.96
18 0.17 3.25
19 0.17 3.25
20 0.17 3.25
21 0 0
22 0 0
23 0.105 3.75
24 0.21 2.96
25 0.17 3
26 0 0
27 0.105 3.75
28 0.21 2.96
29 0.066 3.5
30 0.066 3.5
31 0.066 3.5
32 0.066 3.5
33 0.076 3.55
34 0.17 3.25
35 0.066 3.5
36 0.066 3.5
37 0.066 3.5
38 0.066 3.5
39 0.03 2.5
40 0.07 3.55
41 0.17 3.07
42 0 0
43 0.105 3.75
44 0.21 2.96
45 0.17 3.25
46 0.07 3.55
47 0.0005 4.07
48 0.71 4.02

Bond Coeffs # harmonic

1 350 1.51
2 570 1.229
3 450 1.364
4 317 1.522
5 300 1.79
6 490 1.335
7 340 1.09
8 410 1.444
9 400 1.49
10 656 1.25
11 457 1.358
12 553 0.945
13 320 1.41
14 400 1.38
15 450 1.37
16 450 1.364
17 268 1.529
18 245 1.781
19 337 1.449
20 340 1.09
21 317 1.51
22 317 1.51
23 367 1.471
24 337 1.449
25 300 1.725
26 300 1.725
27 434 1.01
28 427 1.381
29 600 1
30 434 1.01
31 434 1.01
32 340 1.08
33 549 1.34
34 427 1.433
35 469 1.4
36 367 1.08
37 400 1.45
38 483 1.339
39 500 1.32

Angle Coeffs # harmonic

1 80 121.4
2 80 126
3 80 121
4 70 108
5 70 116
6 80 117.2
7 80 120.4
8 75 109
9 75 119
10 70 114.2
11 70 116.6
12 70 116.6
13 80 122.9
14 35 115
15 35 115
16 35 123
17 40 114
18 40 115
19 70 115.5
20 80 125.3
21 35 115
22 70 115.5
23 70 116
24 70 120
25 80 120.4
26 85 120
27 70 117
28 70 117
29 80 126
30 80 126
31 35 122
32 80 122.5
33 35 113
34 55 108.5
35 49 105.4
36 35 109
37 35 113
38 63 111.1
39 50 109.5
40 58.35 112.7
41 63 111.1
42 69 109.8
43 69 109.8
44 78 111.7
45 63 110.1
46 80 109.7
47 33 107.8
48 35 109.5
49 35 109.5
50 35 109.5
51 37.5 110.7
52 51 107.6
53 35 109.5
54 63 111.1
55 63 112.4
56 35 109.5
57 40 109.5
58 40 109.5
59 50 109.5
60 63 112
61 63 114
62 35 109.5
63 80 111.2
64 80 111.2
65 35 109.5
66 63 110.1
67 65 109
68 70 126.4
69 46 115.7
70 50 118
71 50 121.9
72 35 110.2
73 35 119.8
74 35 120
75 38 118.4
76 35 119.8
77 50 118
78 50 121.9
79 70 118
80 75 109.47
81 70 119.7
82 70 130
83 35 117
84 35 117
85 35 119.7
86 60 114
87 35 120
88 70 123
89 70 124
90 75 121.5
91 85 120.7
92 35 123.3
93 85 117
94 85 119.7
95 70 119.7
96 63 120
97 70 120
98 70 120
99 70 120
100 70 124
101 75 120
102 85 120
103 35 119.1
104 35 120
105 35 120
106 70 120
107 35 116
108 70 116
109 70 120
110 70 121.5
111 70 124
112 75 120
113 50 113
114 43.6 109.5
115 55 114
116 70 120.5
117 35 113
118 50 118
119 70 117
120 70 120.5
121 70 117
122 70 117

Dihedral Coeffs # opls

1 1.6 3.2 0 0
2 0 0.5 0 0
3 0 0 0 0
4 0 0 0 0
5 0.7 -1.5 0 0
6 -0.5 0.2 0 0
7 0.8 -0.76 0 0
8 -0.9 0.3 0 0
9 0 0 0.3 0
10 3 5.5 0 0
11 0 5 0 0
12 1.5 5.5 0 0
13 -2 5 0 0
14 1.5 5.5 0 0
15 4 5 0 0
16 0 0 0.085 0
17 0 0 0 0
18 0 0 0 0
19 -0.65 0 0 0
20 0 0 0 0
21 0 0 0 0
22 0 0.546 0 0
23 0 1.412 0 0
24 0 0 0 0
25 1.454 -0.144 -0.775 0
26 0 0 0.275 0
27 0 0 0 0
28 0 0 0.36 0
29 1.173 0.189 -1.2 0
30 0.65 0 0 0
31 1.816 1.222 1.581 0
32 0 0 0 0
33 0 0 0 0
34 0 0 0.36 0
35 0 0 0.275 0
36 0 0.82 0 0
37 0 0 0 0
38 0.4 4.9 0 0
39 0 4.9 0 0
40 0 6.603 0 0
41 0 6.089 0 0
42 0 4.9 0 0
43 0 6.089 0 0
44 0 6.089 0 0
45 2.3 6.089 0 0
46 0 4.9 0 0
47 4.542 6.603 1.045 0
48 2.3 6.089 0 0
49 0 4.9 0 0
50 2.3 6.089 0 0
51 2.3 6.089 0 0
52 4.6 0 0 0
53 0 4.9 0 0
54 2.3 6.089 0 0
55 0 4.9 0 0
56 0 4.9 0 0
57 0 4.9 0 0
58 2.3 6.089 0 0
59 0.9 0.23 -0.505 0
60 0 0 0 0
61 2.5 6 0 0
62 3.2 -3 0 0
63 0 0 0 0
64 2 0 0 0
65 0 2.1 0 0
66 0 2.1 0 0
67 0 0.2 0 0
68 0 1.1 0 0
69 0 0.2 0 0
70 0 14 0 0
71 0 14 0 0
72 0 14 0 0
73 0 14 0 0
74 -0.356 -0.174 0.492 0
75 0 0 0.352 0
76 -0.9 0 0 0
77 -0.9 0 0 0
78 5.519 -6.7 0.581 0
79 2.722 -5.154 0 0
80 0 1.682 0 0
81 0 1.682 0 0
82 3 3 0 0
83 -4.344 -1.714 0 0
84 1.711 -0.5 0.663 0
85 1.428 0.086 0.029 0
86 -0.55 0 1 0
87 -6.18 0 0 0
88 -2.06 -0.313 0.315 0
89 -9 2 0.8 0
90 0 0 -0.1 0
91 -1.697 -0.456 0.585 0
92 9.508 0 0 0
93 -1.552 0 0 0
94 6.28 -1.467 2.03 0
95 0 0 0.468 0
96 1.3 -0.05 0.2 0
97 0 0 0.4 0
98 0.845 -0.962 0.713 0
99 0 0 0.3 0
100 2.732 -0.229 0.485 0
101 -0.25 0 0 0
102 0 0 0.4 0
103 0 0 0.464 0
104 0.845 -0.962 0.713 0
105 0 0 0.3 0
106 0 0 0.366 0
107 0 0 0.462 0
108 0 0 0.384 0
109 1 0 0 0
110 0 0 0 0
111 -2.365 0.912 -0.85 0
112 -1.737 1.251 -3.501 0
113 0 0 0 0
114 0 0.462 0 0
115 4.753 -0.734 0 0
116 0 0 0 0
117 0 0 0 0
118 0 0 0 0
119 0 0 0 0
120 0 0 0 0
121 1.711 -0.5 0.663 0
122 0 0 0.468 0
123 0.5 0 0 0
124 2.817 -0.169 0.543 0
125 0.346 0.405 -0.904 0
126 0 0 0.3 0
127 0 0 0.318 0
128 0 0 -0.372 0
129 0 -8 0 0
130 0 -8 0 0
131 0 0 0 0
132 0 0 0 0
133 -0.5 0.5 -0.5 0
134 0 -0.4 0 0
135 0 0 0 0
136 1.438 -0.124 0.264 0
137 0 0 0.347 0
138 0 0 0.302 0
139 0 0 0.261 0
140 0 0 0.462 0
141 0 2.1 0 0
142 0 2.1 0 0
143 0 2.1 0 0
144 0 2.1 0 0
145 0 -8 0 0
146 0 -8 0 0
147 0 14 0 0
148 0 14 0 0
149 0 14 0 0
150 0 14 0 0
151 0 14 0 0
152 0 14 0 0
153 0 14 0 0
154 -1.6 14 0 0
155 0 14 0 0
156 0 14 0 0
157 0 14 0 0
158 0.205 -0.531 0 0
159 0 0 -0.372 0
160 0 0 -0.372 0
161 1.241 3.353 -0.286 0
162 0 7.25 0 0
163 0 7.25 0 0
164 0 7.25 0 0
165 0 7.25 0 0
166 0 7.25 0 0
167 0 7.25 0 0
168 0 7.25 0 0
169 0 7.25 0 0
170 0 7.25 0 0
171 0 7.25 0 0
172 0 7.25 0 0
173 0 7.25 0 0
174 0 7.25 0 0
175 0 0 0 0
176 0 7.25 0 0
177 0 7.25 0 0
178 0 7.25 0 0
179 0 7.25 0 0
180 0 7.25 0 0
181 0 7.25 0 0
182 1.816 1.222 1.581 0
183 0 0.82 0 0
184 1 0 0 0
185 6.28 -1.467 2.03 0
186 1.438 -0.124 0.264 0
187 1.3 -0.05 0.2 0

Improper Coeffs # harmonic

1 10.5 0
2 10.5 0
3 1 0
4 15 0
5 1.1 0

Atoms # full

42 1 14 0.0000000000000000e+00 -5.5224093595156472e+00 -4.2285580546625186e+00 -2.6155861246367718e-01 0 0 0
32 1 14 0.0000000000000000e+00 -2.5209098912365486e+00 -2.0385956842004029e+00 -1.1370952472815183e+00 0 0 0
33 1 14 0.0000000000000000e+00 -1.4738901991965212e+00 -2.7193499497712801e+00 -4.6498321301099582e-01 0 0 0
37 1 14 0.0000000000000000e+00 -4.1824357403606154e+00 -3.7341012301605230e+00 -2.9363679706570850e-01 0 0 0
127 1 8 5.9999999999999998e-02 -1.1135412661735275e+01 -1.3856457947895293e+00 -4.7584303483699131e+00 0 0 0
125 1 8 5.9999999999999998e-02 -1.1184360002994350e+01 -2.2964922582348377e+00 -3.2038425299175710e+00 0 0 0
68 1 3 -1.7999999999999999e-01 -1.0575289254646520e+01 -2.0382387037672203e+00 -4.0609023258055457e+00 0 0 0
52 1 14 0.0000000000000000e+00 -8.9091812340308572e+00 -8.6190203582757516e-02 -4.0439020626891677e+00 0 0 0
53 1 14 0.0000000000000000e+00 -9.2942065253833732e+00 -1.3660761445969263e+00 -3.5465827777487235e+00 0 0 0
48 1 14 0.0000000000000000e+00 -8.3352015792038685e+00 -2.0877109439201686e+00 -2.7643364533422421e+00 0 0 0
47 1 4 -1.2000000000000000e-01 -8.7426218453924562e+00 -3.5376162819089250e+00 -2.2561836659739005e+00 0 0 0
92 1 8 5.9999999999999998e-02 -8.4500599180770326e+00 -4.2766455771280727e+00 -2.9977758534712713e+00 0 0 0
93 1 8 5.9999999999999998e-02 -9.8416699462108213e+00 -3.5784684388869534e+00 -2.1350004497447763e+00 0 0 0
46 1 5 -5.9999999999999998e-02 -7.9696851306426009e+00 -3.9463944160322373e+00 -9.4016331881808912e-01 0 0 0
126 1 8 5.9999999999999998e-02 -1.0440648195521753e+01 -3.0461927527031882e+00 -4.4786194084375293e+00 0 0 0
91 1 8 5.9999999999999998e-02 -8.3964255077181171e+00 -3.2654604157507889e+00 -2.1868240782028622e-01 0 0 0
89 1 8 5.9999999999999998e-02 -9.3378511300136271e+00 -5.3800812916750251e+00 -1.9614349257532207e-01 0 0 0
90 1 8 5.9999999999999998e-02 -8.1849098897716157e+00 -6.0211849275471518e+00 -1.4163534912481153e+00 0 0 0
45 1 4 -1.2000000000000000e-01 -8.2928026807961679e+00 -5.4126738531188030e+00 -5.3275557994296718e-01 0 0 0
81 1 8 5.9999999999999998e-02 -1.4317094058605417e+00 -4.9877459347939475e+00 -3.9200593189039473e-01 0 0 0
38 1 46 2.0000000000000001e-01 -3.9017844271140900e+00 -2.5333533125826579e+00 -1.0204736644388965e+00 0 0 0
31 1 43 4.6999999999999997e-01 -2.1316440266536585e+00 -7.5574165428574003e-01 -1.8366371555466161e+00 0 0 0
34 1 43 4.6999999999999997e-01 -1.6098792821647581e-01 -2.1008885685167877e+00 -3.4900347260013692e-01 0 0 0
40 1 46 2.0000000000000001e-01 -6.2460554017384773e+00 -2.2404137521815461e+00 -1.5875733783367365e+00 0 0 0
41 1 14 0.0000000000000000e+00 -6.5156547455194760e+00 -3.5031242559691846e+00 -9.4479028490141714e-01 0 0 0
49 1 14 0.0000000000000000e+00 -7.1106152623234467e+00 -1.5249343657830345e+00 -2.3853884200486020e+00 0 0 0
39 1 45 -4.0000000000000002e-01 -4.9478325415670481e+00 -1.8803652832523818e+00 -1.5691343722603699e+00 0 0 0
50 1 13 -1.1500000000000000e-01 -6.7225778264442138e+00 -2.8180697141640126e-01 -2.9663347644435527e+00 0 0 0
67 1 44 -4.6999999999999997e-01 -2.7689456897831386e+00 -3.4608339119654902e-01 -2.7778740135499795e+00 0 0 0
85 1 8 5.9999999999999998e-02 -5.5824864150804405e+00 -6.3440232382948505e+00 -2.2819974863383605e-01 0 0 0
28 1 14 0.0000000000000000e+00 -4.5842068408141298e-02 -6.3232447407334891e-01 -5.0829408634223938e-01 0 0 0
88 1 8 5.9999999999999998e-02 -7.3580735220141982e+00 -6.8708124518054534e+00 9.7197245146465316e-01 0 0 0
44 1 4 -1.2000000000000000e-01 -7.3747975941396815e+00 -5.7862422634896715e+00 6.8401058210814081e-01 0 0 0
87 1 8 5.9999999999999998e-02 -7.6211389726092209e+00 -5.2323994171058716e+00 1.5781102385731469e+00 0 0 0
83 1 8 5.9999999999999998e-02 -3.3158917964537622e+00 -3.7668244233543962e+00 1.5875335350729964e+00 0 0 0
43 1 4 -1.2000000000000000e-01 -5.8880334870964601e+00 -5.5514672619703171e+00 4.4186553156116598e-01 0 0 0
86 1 8 5.9999999999999998e-02 -5.3012250088286574e+00 -5.7025029971528722e+00 1.4095707148962664e+00 0 0 0
84 1 8 5.9999999999999998e-02 -3.2972789425847653e+00 -5.3716917417890917e+00 8.6406785450663681e-01 0 0 0
36 1 4 -1.2000000000000000e-01 -3.1707791710482942e+00 -4.3018401797276198e+00 6.2512242796917450e-01 0 0 0
82 1 8 5.9999999999999998e-02 -1.1494257417958125e+00 -4.0915204041749602e+00 1.1271076425345687e+00 0 0 0
35 1 4 -1.2000000000000000e-01 -1.7313793742378230e+00 -4.1174133729567775e+00 2.1747313787899739e-01 0 0 0
63 1 3 -1.7999999999999999e-01 -1.8654586940925464e+00 6.7019163001967552e+00 -2.0584029167470699e+00 0 0 0
75 1 8 5.9999999999999998e-02 -8.9671546492616505e-01 4.1432007417813077e+00 -2.5379460222111847e+00 0 0 0
123 1 42 4.3500000000000000e-01 -2.5723340923580045e+00 1.4942595275771706e+00 -2.4814105847812700e+00 0 0 0
76 1 8 5.9999999999999998e-02 -1.8620615657519395e+00 4.2897536323935208e+00 -9.9158226623623091e-01 0 0 0
64 1 41 -5.8499999999999996e-01 -1.9624871633740177e+00 2.0478856264002454e+00 -2.0012024789256695e+00 0 0 0
121 1 8 5.9999999999999998e-02 -2.7777034634621853e+00 6.5587349387982776e+00 -1.4651004644594012e+00 0 0 0
23 1 4 -1.2000000000000000e-01 -8.7191823150030678e-01 4.4632473052626986e+00 -1.4283217033648865e+00 0 0 0
122 1 8 5.9999999999999998e-02 -2.1153836692630668e+00 6.5464239432457711e+00 -2.9993417564793958e+00 0 0 0
24 1 5 -5.9999999999999998e-02 -6.2470419699555868e-01 5.9495415487598988e+00 -1.5488898463906466e+00 0 0 0
30 1 40 1.4999999999999999e-01 -9.5284327893764642e-01 1.4656401942668178e+00 -1.2968805825183314e+00 0 0 0
51 1 13 -1.1500000000000000e-01 -7.6184810955197353e+00 3.6689622441954267e-01 -3.7773206967121302e+00 0 0 0
95 1 15 1.1500000000000000e-01 -7.3173415701598472e+00 1.3614144921234967e+00 -4.1912238631880676e+00 0 0 0
78 1 8 5.9999999999999998e-02 -1.8969311797494984e-01 7.4698268900681182e+00 -1.4119409607953617e-01 0 0 0
120 1 8 5.9999999999999998e-02 -1.7275500129865282e+00 7.7392721171002057e+00 -1.8956821358753131e+00 0 0 0
25 1 5 -5.9999999999999998e-02 -2.3207258549160234e-01 6.4165979729072804e+00 -1.6273302211349189e-01 0 0 0
128 1 8 5.9999999999999998e-02 -9.2146270554499505e+00 1.6585809907523219e+00 -5.1647011632917055e+00 0 0 0
129 1 8 5.9999999999999998e-02 -1.0683575340022701e+01 1.0786219197759646e+00 -4.3442146100788248e+00 0 0 0
69 1 3 -1.7999999999999999e-01 -9.8079871805201417e+00 7.5807911665928507e-01 -4.8905224834232399e+00 0 0 0
94 1 15 1.1500000000000000e-01 -5.8003571562635559e+00 2.5891212392572660e-01 -2.7711364301495052e+00 0 0 0
130 1 8 5.9999999999999998e-02 -1.0171184443495775e+01 2.8358073041020115e-01 -5.8143011869529468e+00 0 0 0
29 1 14 0.0000000000000000e+00 -1.0156061193378387e+00 4.2853140154663072e-02 -1.2375980099899200e+00 0 0 0
117 1 8 5.9999999999999998e-02 -1.2256505620314870e+00 4.8664480430656036e+00 1.0232660043769772e+00 0 0 0
62 1 3 -1.7999999999999999e-01 -1.1055716548214589e+00 5.9769941097273582e+00 1.0370136237659373e+00 0 0 0
118 1 8 5.9999999999999998e-02 -2.1160896772365976e+00 6.3855920248665878e+00 9.9220067560499470e-01 0 0 0
119 1 8 5.9999999999999998e-02 -6.2612771676030499e-01 6.1283278174137594e+00 2.0061627192188780e+00 0 0 0
66 1 44 -4.6999999999999997e-01 7.9904147761872202e-01 -2.8236691874686475e+00 -1.9329640704856439e-02 0 0 0
106 1 8 5.9999999999999998e-02 4.6159803955777363e+00 -2.3615833276260823e+00 2.1526027716801117e+00 0 0 0
104 1 8 5.9999999999999998e-02 4.2455342418311171e+00 -1.9728145578937881e+00 3.8827376079892901e+00 0 0 0
57 1 3 -1.7999999999999999e-01 4.9345724044513890e+00 -2.4613304458524325e+00 3.1854580934159666e+00 0 0 0
105 1 8 5.9999999999999998e-02 4.9918992490398324e+00 -3.5051166038676813e+00 3.3000115874593967e+00 0 0 0
5 1 14 0.0000000000000000e+00 6.3271664280586624e+00 -1.8804350232200497e+00 3.3866941888434727e+00 0 0 0
124 1 42 4.3500000000000000e-01 1.7162950353594231e+00 -1.5442213973063734e+00 9.4977721416283822e-01 0 0 0
4 1 14 0.0000000000000000e+00 6.7409146256520902e+00 -6.9206756388057900e-01 2.7470249910099480e+00 0 0 0
96 1 8 5.9999999999999998e-02 5.8141288217740712e+00 -3.5992499541067762e+00 5.3230095534330397e+00 0 0 0
71 1 8 5.9999999999999998e-02 4.8175398063563826e+00 -3.1735914533835274e-01 1.8149453918151812e+00 0 0 0
70 1 8 5.9999999999999998e-02 6.1315408501118425e+00 -6.4034163643561604e-01 7.0622009301758737e-01 0 0 0
102 1 8 5.9999999999999998e-02 8.9265895039371799e+00 -2.2201088976178052e+00 6.7265422487872568e+00 0 0 0
2 1 14 0.0000000000000000e+00 8.8583647405916146e+00 -6.1711887381676167e-01 4.0631246705882740e+00 0 0 0
103 1 8 5.9999999999999998e-02 1.0379227824493951e+01 -2.1299243077736851e+00 5.9907687044460154e+00 0 0 0
54 1 4 -1.2000000000000000e-01 6.8195734044289811e+00 -3.8030552572538845e+00 5.0027829287316363e+00 0 0 0
99 1 8 5.9999999999999998e-02 6.6803669996827777e+00 -5.1526593800040095e+00 3.3042695803972864e+00 0 0 0
101 1 8 5.9999999999999998e-02 9.4801072474931889e+00 -3.6337330264898688e+00 5.6976587750532754e+00 0 0 0
100 1 8 5.9999999999999998e-02 6.8513084655669649e+00 -5.9951278119496418e+00 4.8013894436652933e+00 0 0 0
6 1 14 0.0000000000000000e+00 7.3010619756006117e+00 -2.5171765818147400e+00 4.2957837091950211e+00 0 0 0
55 1 3 -1.7999999999999999e-01 7.1219002133967377e+00 -5.0542891913042221e+00 4.2564677468406646e+00 0 0 0
97 1 8 5.9999999999999998e-02 7.3655152154972638e+00 -3.7939677346526333e+00 5.9499822312073434e+00 0 0 0
1 1 14 0.0000000000000000e+00 8.5439516574639196e+00 -1.8785477739073217e+00 4.6337175259983079e+00 0 0 0
56 1 3 -1.7999999999999999e-01 9.3846254528282955e+00 -2.4881534476428429e+00 5.7837501141553185e+00 0 0 0
98 1 8 5.9999999999999998e-02 8.2455177727373599e+00 -5.0950199113500743e+00 4.1569154281067116e+00 0 0 0
65 1 41 -5.8499999999999996e-01 1.8679347429433990e+00 -6.3007835119121058e-01 9.5356593124803646e-01 0 0 0
108 1 8 5.9999999999999998e-02 1.0911506780259426e+01 -7.6571606172789342e-01 4.3894565332832727e+00 0 0 0
7 1 4 -1.2000000000000000e-01 5.8591893834383857e+00 -7.1509173087411670e-02 1.6113260679505537e+00 0 0 0
80 1 8 5.9999999999999998e-02 1.6984059306285322e+00 6.4224377841740212e+00 -6.8455479070146996e-01 0 0 0
19 1 14 0.0000000000000000e+00 1.2507572999097387e+00 4.2901051631495157e+00 -1.6050066912732122e-01 0 0 0
21 1 14 0.0000000000000000e+00 1.1929536450089352e-01 2.1662507306636400e+00 -7.4585388025319133e-01 0 0 0
20 1 14 0.0000000000000000e+00 1.8922671828115237e-01 3.6074213023195671e+00 -7.3091432829496605e-01 0 0 0
77 1 8 5.9999999999999998e-02 1.7994360064296186e-01 6.1929348341737125e+00 -2.3559981611699596e+00 0 0 0
22 1 14 0.0000000000000000e+00 1.1391382368181855e+00 1.5060622177674192e+00 -4.9972586015039344e-03 0 0 0
26 1 4 -1.2000000000000000e-01 1.1176709967696874e+00 5.8465867528819624e+00 -9.7971420629913326e-03 0 0 0
61 1 41 -5.8499999999999996e-01 3.6300073951849332e+00 5.6258436198992534e+00 5.8091470361205533e-01 0 0 0
8 1 14 0.0000000000000000e+00 5.9440379140783532e+00 1.4458799167256517e+00 1.4982207720562062e+00 0 0 0
9 1 14 0.0000000000000000e+00 7.1448643805285554e+00 2.1313103808078071e+00 1.8304294174268754e+00 0 0 0
74 1 15 1.1500000000000000e-01 3.6825842992057316e+00 5.6541303051686043e-01 4.3101719704828451e-01 0 0 0
14 1 14 0.0000000000000000e+00 4.8338347977556522e+00 2.2458847497139609e+00 1.0200231276364577e+00 0 0 0
15 1 13 -1.1500000000000000e-01 3.6034766236992630e+00 1.5814321304168339e+00 7.0395496381239453e-01 0 0 0
11 1 14 0.0000000000000000e+00 7.2158735865631787e+00 3.5513832086623416e+00 1.7154694263494905e+00 0 0 0
13 1 14 0.0000000000000000e+00 4.8370143701159822e+00 3.6299300818204414e+00 9.8881201586088840e-01 0 0 0
12 1 14 0.0000000000000000e+00 6.0254441244956274e+00 4.2678560660442484e+00 1.3626272499523018e+00 0 0 0
60 1 3 -1.7999999999999999e-01 6.0776347523687164e+00 5.7572966612703418e+00 1.5383061585783808e+00 0 0 0
113 1 8 5.9999999999999998e-02 5.3361778274010172e+00 5.9858087259755708e+00 2.2259886427525779e+00 0 0 0
17 1 14 0.0000000000000000e+00 2.4058117430526798e+00 3.6038483531043091e+00 1.8008274583808836e-01 0 0 0
115 1 8 5.9999999999999998e-02 7.0046610628838488e+00 6.2237091589184841e+00 1.9766432887143486e+00 0 0 0
16 1 14 0.0000000000000000e+00 2.3871146573137438e+00 2.2262774166681858e+00 3.1105730020113270e-01 0 0 0
27 1 40 1.4999999999999999e-01 9.7012810245818859e-01 9.5405341647920847e-02 1.9148760268773543e-01 0 0 0
79 1 8 5.9999999999999998e-02 1.3226812947325022e+00 6.0725051560142580e+00 1.0562312539073779e+00 0 0 0
18 1 40 1.4999999999999999e-01 3.6404113326512997e+00 4.3039035850754157e+00 5.6154484044211084e-01 0 0 0
112 1 8 5.9999999999999998e-02 8.7389216831242695e+00 5.2232173571847316e+00 1.6519883092039664e+00 0 0 0
109 1 8 5.9999999999999998e-02 1.0243674595549836e+01 6.2648218509323794e-01 5.2719420429967725e+00 0 0 0
10 1 4 -1.2000000000000000e-01 8.3315204911457332e+00 1.3346078478353460e+00 2.3786867314814066e+00 0 0 0
73 1 8 5.9999999999999998e-02 9.0908613529370044e+00 1.1259228455101660e+00 1.5840690907387951e+00 0 0 0
116 1 42 4.3500000000000000e-01 4.4409326902806017e+00 5.9194126585128970e+00 9.7890065626671829e-01 0 0 0
59 1 3 -1.7999999999999999e-01 8.5237902659863050e+00 4.1874950492314795e+00 1.9728837132891013e+00 0 0 0
72 1 8 5.9999999999999998e-02 8.7983356721668180e+00 1.9378466144791233e+00 3.2254364992539282e+00 0 0 0
110 1 8 5.9999999999999998e-02 9.3359117093051189e+00 3.6664760017436824e+00 1.4401509653748854e+00 0 0 0
111 1 8 5.9999999999999998e-02 8.6616278064692747e+00 4.1547784749325078e+00 2.9951379882624218e+00 0 0 0
114 1 8 5.9999999999999998e-02 5.8613693651175165e+00 6.2391573973737362e+00 5.9247741214368532e-01 0 0 0
107 1 8 5.9999999999999998e-02 1.0526953870648283e+01 7.1691377567828607e-01 3.5263096236399272e+00 0 0 0
3 1 14 0.0000000000000000e+00 7.9299302447210813e+00 7.0844921986616596e-04 3.0767506231805433e+00 0 0 0
58 1 3 -1.7999999999999999e-01 1.0238849398136077e+01 3.0334092273632200e-02 4.3435956778543270e+00 0 0 0

Velocities

42 -2.7007322704532856e-03 1.3957489037871183e-03 -9.1010280841393940e-03
32 -2.3665499582403052e-03 -1.0159175850688330e-02 8.8613094345520052e-04
33 2.2579945074461473e-03 -4.0099237154639427e-03 -1.5051080768581351e-03
37 -1.6863654041649391e-03 -1.5402129018553872e-03 -2.6464420028413350e-03
127 2.2424240455005205e-02 1.9407263815388071e-02 6.7668523468122251e-03
125 -5.5231469515494500e-03 -6.2622862446720412e-04 1.2269616494930370e-02
68 1.2415838793265129e-02 1.0326885376587878e-02 7.2638896764527739e-03
52 2.7138864595329659e-03 1.7148779061959825e-03 7.1631476125798470e-03
53 -6.0017751351400250e-04 2.5500362791463664e-04 2.7872930384493563e-03
48 2.6199254899267584e-03 4.9258950239179828e-04 -9.2892513344234873e-03
47 -7.9055216412854245e-03 -1.1198345385898305e-02 -4.7106148936322525e-03
92 -1.4719576161074169e-02 -2.4382758237017519e-03 -1.3565492308177916e-02
93 2.2713586926425514e-02 -1.9969835249435746e-03 2.0738259790182390e-02
46 2.9682241752033997e-03 2.6927171430879324e-03 -5.0313446263378992e-03
126 8.4740398226458352e-04 -2.7089092032976499e-02 5.5680184807548831e-03
91 -2.4815709159275924e-02 1.9998965920011724e-02 8.8906653515047600e-03
89 -1.0512929346360746e-02 9.9744820216414228e-03 4.1604119180770512e-03
90 2.2208708792766881e-03 1.8413907990404006e-02 3.1022421189384298e-02
45 1.1177121897827593e-03 8.2776306808448278e-03 4.7769279541581304e-03
81 2.0500494167778401e-03 4.0520363829560160e-03 7.1599920600794393e-03
38 -4.3021144398526761e-03 -2.0624605881330920e-03 -2.9963482132822094e-03
31 -2.3016805822313178e-03 -1.0428600595276416e-03 4.1783268509961282e-03
34 2.8897819889558444e-03 -3.8725821411849423e-04 3.2671392422376207e-03
40 -2.4749916042064632e-03 -2.9246172680511494e-03 5.4745219450385921e-03
41 -1.2653597093369904e-03 6.5901458898504316e-03 -3.9333663738333703e-03
49 4.3096517756796363e-03 3.0227484749640312e-03 6.9585211814074087e-03
39 -1.1414958523321135e-03 1.3806928886065875e-04 1.8572520408789771e-03
50 -4.1598339968891091e-04 -5.5457631152085367e-03 1.9544444858771203e-03
67 -3.7290338254273615e-03 3.5715086300682547e-03 -4.9243917616985993e-03
85 7.3369774259795925e-03 -1.3092136372274578e-02 -6.3804685122077374e-03
28 -2.9527105353337529e-03 -9.7820838545958078e-03 1.5373173903713018e-03
88 -1.3786298182031196e-02 1.8030500844729805e-02 -1.7045107056960478e-02
44 5.5524747360204147e-03 2.7361136960652403e-03 -6.2909225855175448e-04
87 1.6560466155905413e-02 -6.4897735952053233e-03 1.7384881804042188e-02
83 -2.0289021641900089e-02 2.0127426299147860e-02 -6.2219136108492851e-03
43 -4.2432852627337370e-03 -1.2245152622491959e-02 -7.9258672708762033e-04
86 -1.5811954336807928e-02 -8.7661237841079199e-03 2.3178923887286932e-02
84 1.8267149735012447e-02 -2.3231110094562621e-02 -2.2164673044032506e-02
36 -8.8047725337583752e-04 -1.9003235596054490e-03 7.3057578054702517e-03
82 2.5895784717110074e-02 -5.5951289065636579e-03 -9.5973441635735825e-03
35 1.3936433379291868e-03 -1.6042982431012356e-03 -1.6946169338642434e-03
63 7.0840040524470351e-03 -5.1209423902064824e-03 5.3391354076989944e-03
75 3.9959257535758345e-03 -6.3442799628319647e-03 -2.2032039871285637e-02
123 1.2922647952576478e-02 3.6387839337486946e-02 -2.5469203491990170e-02
76 -4.0917678317500018e-03 2.2246540053375480e-02 -1.5886917805010690e-02
64 -6.7006493217603080e-03 3.2862018245066031e-03 -7.8901964788132307e-03
121 1.6681092554815521e-02 4.1514621814701955e-03 2.5851962615252100e-03
23 -2.3337098527460663e-03 -1.0839387835114257e-03 -8.1760748426145421e-04
122 -1.6155349908762752e-02 3.0175797141092742e-03 2.1099556944331136e-03
24 5.5421532278471207e-03 -4.9967389390601089e-03 4.6088266608849942e-03
30 -6.6386535417213722e-03 1.0160750857214211e-02 -2.3385342659613859e-03
51 -2.7250697808470455e-03 -4.3492325735683363e-04 -1.2150505828783017e-03
95 -6.7949921268901092e-03 1.7529413219178960e-03 2.2670894297818576e-03
78 1.3020920758846647e-02 7.7980886827256745e-04 4.6990502940172981e-03
120 -9.7128111637177755e-03 -2.5079554734182370e-03 7.3795368483623404e-03
25 4.9437116237393821e-03 -4.8002380075382227e-03 3.3540125388312348e-03
128 -8.0157290684835895e-03 2.2432027308877615e-02 -8.8487986062279148e-03
129 -8.6494835767764503e-04 2.0251957695714317e-02 1.8261888009960300e-02
69 9.5657678750991383e-04 -3.1890795578547676e-06 1.5679936849236893e-03
94 1.1308875305641054e-02 5.2112964499573828e-03 -1.7892810716000795e-02
130 1.7104755664629180e-03 -2.1762794222605866e-02 1.2261427573538356e-02
29 -2.4721653342010905e-03 -3.7428746324443523e-03 -5.4051749081744996e-03
117 1.2062511529568476e-02 -1.3715759755106010e-02 -1.4688064346761639e-02
62 1.8847331013381314e-03 -2.6433361614970042e-03 -3.7154230980998939e-03
118 1.3258108677822789e-02 7.4991494846402204e-03 2.1513906236269125e-02
119 8.8164871607770857e-03 -1.5556853593785778e-02 7.5814487778644597e-03
66 -3.3972972533974225e-03 2.9216424201798613e-03 1.3509680554565839e-03
106 1.3158846384409152e-02 -8.2100723905881370e-03 1.8004185234508582e-02
104 -2.0656933693504985e-03 2.6578335964067730e-02 -4.3302983783789920e-03
57 2.6271573918304771e-03 -1.6875204324380908e-03 3.1007696808901817e-03
105 -2.5639678323376762e-02 -1.0976028182023086e-02 -5.3568503816530883e-03
5 4.3070293665626721e-03 -7.9716591428947315e-03 -2.7588279764166791e-04
124 -2.5685615244838575e-02 4.3508634235736475e-03 3.4681066963492158e-02
4 3.7650812979709261e-03 4.7234858973826483e-04 1.4612441913115364e-04
96 1.8524533236939238e-02 1.3628887354515467e-03 -4.2388452485180384e-03
71 1.1181867581002307e-02 -2.5273147179237900e-03 -3.8995767433109211e-03
70 2.4553514610659156e-03 -2.1085061820981812e-03 -1.0353914779826268e-02
102 -1.3889270447639060e-02 -1.3797812794886446e-02 -1.3382774604729751e-02
2 -8.2383504643723220e-03 3.3636207242651586e-03 2.6124359529071956e-03
103 -1.2964459980413362e-03 -6.5220978501829684e-03 -1.5879974070951739e-02
54 2.7501832741519366e-03 6.4519280845609964e-04 -2.7988142468547928e-03
99 1.0187586842709279e-02 -2.4352066861926588e-03 -4.2433334828853525e-03
101 2.3476585919509112e-02 2.8181259012613199e-02 1.2450314027075802e-02
100 8.9316590249333624e-03 1.3341767784165166e-02 1.2347954743183008e-02
6 1.4311773444280766e-03 -4.0495978863626068e-03 -2.1727828315215238e-03
55 1.3684561678891819e-02 2.8186766728947499e-03 6.0492196661284959e-03
97 9.5689306250514323e-03 1.4546987437794568e-03 4.7212224484964533e-03
1 -6.3780842366055980e-03 -6.9325550197209774e-03 -9.8265533159650332e-04
56 -5.0351976730629144e-03 1.7192983018327335e-03 -1.0015267871826049e-03
98 1.0013283141153134e-02 -2.0396560806384929e-02 1.5908083402709303e-02
65 -6.4124924676565520e-04 -3.7875131728099202e-03 1.3014562739274013e-04
108 3.7782458700515956e-02 -6.3652402219435749e-03 3.2548188844400373e-03
7 3.4247697725426135e-03 8.0546838241829701e-03 -4.1224168302730875e-03
80 3.2994312078332047e-02 2.1285811639477376e-02 -1.3785802408708036e-02
19 -1.1375845321458999e-02 8.3073016819870289e-03 -2.6999311099172676e-03
21 4.6118390116191982e-04 9.0988724724634575e-04 -5.2543532372041424e-03
20 -1.7127120219674870e-03 4.7068975844941872e-03 -9.5524190968172534e-03
77 -1.0895890578434637e-02 8.9658031281007206e-03 -9.0561124691549057e-03
22 4.1970771448513770e-03 3.8676589966931763e-03 3.8126538392515316e-04
26 1.2170131379072040e-03 -1.0644879091017715e-03 -6.1978593886949755e-03
61 1.6400306643598959e-03 -1.5766536804395609e-03 -9.5332496951836638e-04
8 -1.1409052272736110e-03 -3.7344109868493545e-03 3.1527181272939749e-03
9 -4.0567816547587834e-03 2.5393948914954230e-03 1.4428968742316655e-03
74 6.8670049891612021e-03 -1.5862230237384218e-02 -9.9971862839895887e-03
14 -2.2841209862708811e-03 3.5741663452087237e-03 -1.0910723718563851e-03
15 2.8573906455703932e-03 7.1972452670306429e-03 -2.4302316750214139e-03
11 -1.0675092225377655e-03 1.7765566335321413e-03 3.7506296598457381e-03
13 -1.9197497482108345e-03 4.4157792083253274e-03 -3.3026879912446622e-03
12 1.8930454881770397e-03 -4.3036239014011498e-04 -4.9667240787462088e-04
60 3.6487303855421288e-03 -6.9860355444580817e-03 -3.4874466149641898e-03
113 3.0082640029128960e-02 9.2519532835814641e-03 -3.1126060459092195e-02
17 4.6931151021519424e-04 -6.2941732508274024e-03 2.8123041495274007e-03
115 -5.3660352724981195e-03 -1.2471944533954555e-02 -2.1600324481683492e-02
16 7.1520438470609347e-03 1.9625970622276527e-03 7.9108125056344975e-03
27 -5.7143475481542683e-03 3.2104306041637271e-03 -3.3629675727205222e-03
79 9.0975850862274228e-03 3.2174079496228534e-04 1.2078432232534261e-02
18 -9.3927060562914695e-04 3.6709710483228868e-03 1.1016492134176249e-02
112 -1.1653919694827233e-02 -1.2460220997621582e-02 2.1946818779499215e-02
109 -1.9865427926959455e-02 -2.3274366222392047e-02 -2.4711095771627483e-02
10 -7.7385421085056144e-03 -3.8807991047567824e-04 -1.7603544946389329e-03
73 -5.9043353493172298e-03 -6.9275428829067009e-03 2.9795690755282180e-02
116 -1.9944317935251303e-02 9.2637904814396946e-03 -3.5592929303146551e-03
59 -5.2953561313238660e-03 -9.6385554369275586e-04 -6.8835212270574610e-04
72 -1.4279479015043054e-03 1.4593123809088776e-02 -4.9182372505862555e-03
110 -1.4579525536763246e-02 8.4581775222561124e-03 6.8283169316254808e-03
111 1.3571763020990147e-03 -2.9840013561409371e-03 5.4416435334320161e-02
114 3.4028119389713916e-02 -1.6141481053173869e-03 1.9267813776610470e-03
107 -5.3719516879176992e-03 -1.0501791726738643e-02 2.5532767350871087e-02
3 -2.3552429536330389e-03 6.0943361175283643e-03 -4.0358365711372747e-03
58 6.2141233020856111e-03 -1.3672700288535464e-03 5.7510669022247871e-03

Bonds

1 22 42 43
2 35 32 33
3 35 32 38
4 9 33 34
5 22 33 35
6 35 37 42
7 35 37 38
8 20 68 125