LAMMPS Description

     130  atoms
     142  bonds
     265  angles
     385  dihedrals
     39  impropers

     70  atom types
     61  bond types
     174  angle types
     260  dihedral types
     5  improper types

  -50.00 50.00 xlo xhi
  -50.00 50.00 ylo yhi
  -50.00 50.00 zlo zhi

Masses

1 1.008
2 15.999
3 12.011
4 12.011
5 12.011
6 12.011
7 12.011
8 1.008
9 12.011
10 12.011
11 12.011
12 1.008
13 12.011
14 12.011
15 1.008
16 12.011
17 15.999
18 14.007
19 14.007
20 14.007
21 1.008
22 1.008
23 12.011
24 15.999
25 15.999
26 1.008
27 12.011
28 15.999
29 12.011
30 12.011
31 12.011
32 12.011
33 12.011
34 14.007
35 12.011
36 12.011
37 12.011
38 12.011
39 1.008
40 1.008
41 12.011
42 15.999
43 1.008
44 12.011
45 15.999
46 15.999
47 12.011
48 12.011
49 12.011
50 12.011
51 1.008
52 12.011
53 15.999
54 1.008
55 1.008
56 12.011
57 12.011
58 12.011
59 14.007
60 12.011
61 12.011
62 32.06
63 12.011
64 14.007
65 12.011
66 1.008
67 12.011
68 1.008
69 22.99
70 35.453

Atoms

1 1 14 0.0 -8.96237 -3.16977 -0.319371
2 1 14 0.0 -8.27772 -4.2805 0.207517
3 1 14 0.0 -6.88732 -4.2073 0.42256
4 1 14 0.0 -6.19924 -3.02805 0.128267
5 1 14 0.0 -6.88662 -1.8936 -0.348189
6 1 14 0.0 -8.27694 -1.95701 -0.551957
7 1 4 -0.12 -4.71413 -2.92611 0.316943
8 1 14 0.0 -3.98899 -4.18438 0.694489
9 1 14 0.0 -4.65646 -5.34778 1.00599
10 1 4 -0.12 -6.16141 -5.40991 0.973411
11 1 14 0.0 -3.92622 -6.54015 1.33455
12 1 14 0.0 -2.53577 -6.56654 1.29549
13 1 14 0.0 -1.82306 -5.34565 1.03367
14 1 14 0.0 -2.56092 -4.14825 0.728009
15 1 13 -0.115 -1.89553 -2.93105 0.517079
16 1 14 0.0 -0.506398 -2.83577 0.453081
17 1 14 0.0 0.253003 -4.05695 0.5866
18 1 41 0.15 -0.413049 -5.21178 1.06756
19 1 14 0.0 1.62358 -4.05528 0.165753
20 1 14 0.0 2.28177 -2.86169 -0.0985547
21 1 14 0.0 1.62413 -1.60598 0.130681
22 1 14 0.0 0.210682 -1.58214 0.315731
23 1 4 -0.12 3.61319 -2.99714 -0.800271
24 1 5 -0.06 3.42413 -3.90066 -2.0353
25 1 5 -0.06 2.99808 -5.32627 -1.59833
26 1 4 -0.12 2.39115 -5.31335 -0.168561
27 1 41 0.15 -0.44695 -0.299936 0.400172
28 1 14 0.0 0.297702 0.903183 0.358248
29 1 14 0.0 1.70793 0.87642 0.254665
30 1 41 0.15 2.3708 -0.366258 0.171895
31 1 44 0.47 2.48988 2.09731 0.231399
32 1 14 0.0 1.77295 3.38682 0.314222
33 1 14 0.0 0.394624 3.38984 0.399458
34 1 44 0.47 -0.387322 2.16326 0.443608
35 1 4 -0.12 -0.35112 4.6893 0.490516
36 1 4 -0.12 0.320531 5.75197 -0.374793
37 1 14 0.0 1.78367 5.859 -0.0369721
38 1 60 0.2 2.49108 4.67954 0.302966
39 1 59 -0.4 3.79899 4.68389 0.596806
40 1 60 0.2 4.47709 5.83401 0.520685
41 1 14 0.0 3.86169 7.06256 0.198742
42 1 14 0.0 2.48548 7.07524 -0.0698515
43 1 4 -0.12 1.77902 8.3681 -0.4169
44 1 4 -0.12 2.59557 9.62297 -0.0892574
45 1 4 -0.12 4.04205 9.46173 -0.55416
46 1 5 -0.06 4.71042 8.31282 0.200085
47 1 4 -0.12 6.11117 8.01428 -0.33762
48 1 14 0.0 6.75726 6.84115 0.356861
49 1 14 0.0 5.92814 5.78055 0.777965
50 1 13 -0.115 6.50071 4.65418 1.38404
51 1 13 -0.115 7.87577 4.59771 1.57417
52 1 14 0.0 8.71841 5.63913 1.15419
53 1 14 0.0 8.15244 6.76868 0.525876
54 1 4 -0.12 -9.03665 -0.744239 -1.04705
55 1 3 -0.18 -8.9785 -0.606235 -2.57659
56 1 3 -0.18 -10.4381 -3.28317 -0.638601
57 1 3 -0.18 -6.08387 -0.647569 -0.639598
58 1 3 -0.18 -9.02979 -5.55036 0.537049
59 1 3 -0.18 -4.70399 -7.78886 1.68606
60 1 3 -0.18 -1.8087 -7.88706 1.42015
61 1 42 -0.585 0.313387 -6.23099 1.64167
62 1 3 -0.18 4.12893 -6.35977 -1.61617
63 1 3 -0.18 4.65644 -3.85577 -2.94194
64 1 42 -0.585 3.69759 -0.389193 0.166661
65 1 42 -0.585 -1.76822 -0.203437 0.521021
66 1 45 -0.47 -1.66344 2.22552 0.567954
67 1 45 -0.47 3.75513 2.03075 0.121255
68 1 3 -0.18 9.02439 7.89423 0.0192485
69 1 3 -0.18 10.2058 5.51829 1.37507
70 1 8 0.06 -4.26332 -2.53086 -0.610149
71 1 8 0.06 -4.49509 -2.14255 1.06834
72 1 8 0.06 -6.52927 -5.60622 1.99972
73 1 8 0.06 -6.46339 -6.30582 0.404756
74 1 15 0.115 -2.47598 -2.02898 0.412798
75 1 8 0.06 4.01085 -2.03049 -1.11008
76 1 8 0.06 4.36773 -3.44932 -0.130099
77 1 8 0.06 2.58262 -3.46625 -2.59966
78 1 8 0.06 2.21058 -5.67203 -2.28639
79 1 8 0.06 3.23805 -5.40463 0.539051
80 1 8 0.06 1.78237 -6.2166 -0.0650828
81 1 8 0.06 -1.40001 4.53271 0.208724
82 1 8 0.06 -0.351697 5.01864 1.54663
83 1 8 0.06 -0.192448 6.71358 -0.249716
84 1 8 0.06 0.21277 5.47512 -1.4407
85 1 8 0.06 1.53795 8.35613 -1.4952
86 1 8 0.06 0.809705 8.41392 0.10327
87 1 8 0.06 2.5887 9.78949 1.00093
88 1 8 0.06 2.1236 10.5027 -0.55236
89 1 8 0.06 4.61549 10.3897 -0.401075
90 1 8 0.06 4.06186 9.24026 -1.63588
91 1 8 0.06 4.82719 8.62127 1.25865
92 1 8 0.06 6.03636 7.80303 -1.42217
93 1 8 0.06 6.72623 8.91967 -0.240611
94 1 15 0.115 5.84946 3.83155 1.67932
95 1 15 0.115 8.32103 3.72158 2.05068
96 1 8 0.06 -8.63317 0.166565 -0.580624
97 1 8 0.06 -10.0853 -0.797762 -0.723802
98 1 8 0.06 -9.38533 -1.50751 -3.06016
99 1 8 0.06 -7.93767 -0.493506 -2.91485
100 1 8 0.06 -9.55412 0.265351 -2.9251
101 1 8 0.06 -10.7157 -4.31407 -0.89262
102 1 8 0.06 -10.7169 -2.65096 -1.49162
103 1 8 0.06 -11.0667 -2.97565 0.21548
104 1 8 0.06 -5.32173 -0.84679 -1.41105
105 1 8 0.06 -5.53157 -0.309191 0.252483
106 1 8 0.06 -6.69755 0.186455 -0.99505
107 1 8 0.06 -8.51493 -6.14437 1.30241
108 1 8 0.06 -9.14529 -6.196 -0.3516
109 1 8 0.06 -10.0393 -5.3341 0.911812
110 1 8 0.06 -4.15623 -8.41987 2.39727
111 1 8 0.06 -4.91507 -8.40317 0.792945
112 1 8 0.06 -5.67116 -7.54444 2.14213
113 1 8 0.06 -0.969176 -7.93572 0.716668
114 1 8 0.06 -2.47764 -8.72709 1.20157
115 1 8 0.06 -1.38399 -8.03662 2.42523
116 1 43 0.435 1.20569 -5.89767 1.82711
117 1 8 0.06 4.52558 -6.51949 -2.62826
118 1 8 0.06 3.76768 -7.32702 -1.23406
119 1 8 0.06 4.96168 -6.03563 -0.971627
120 1 8 0.06 4.84524 -2.8245 -3.27523
121 1 8 0.06 4.52116 -4.48386 -3.83547
122 1 8 0.06 5.55475 -4.20916 -2.414
123 1 43 0.435 3.96265 0.647719 0.147403
124 1 43 0.435 -1.95955 0.842695 0.562916
125 1 8 0.06 8.76887 8.15948 -1.01799
126 1 8 0.06 10.0887 7.63399 0.0474482
127 1 8 0.06 8.88931 8.80782 0.623157
128 1 8 0.06 10.7576 5.51968 0.420724
129 1 8 0.06 10.4448 4.58422 1.9013
130 1 8 0.06 10.597 6.3581 1.97137

Bonds

1 56 1 2 
2 56 1 6 
3 30 1 56 
4 30 2 58 
5 56 2 3 
6 56 3 4 
7 30 3 10 
8 56 4 5 
9 30 4 7 
10 30 5 57 
11 56 5 6 
12 30 6 54 
13 28 7 70 
14 28 7 71 
15 30 7 8 
16 56 8 9 
17 56 8 14 
18 30 9 10 
19 56 9 11 
20 28 10 73 
21 28 10 72 
22 30 11 59 
23 56 11 12 
24 30 12 60 
25 56 12 13 
26 56 13 18 
27 56 13 14 
28 56 14 15 
29 57 15 74 
30 56 15 16 
31 56 16 17 
32 56 16 22 
33 56 17 18 
34 56 17 19 
35 20 18 61 
36 30 19 26 
37 56 19 20 
38 56 20 21 
39 30 20 23 
40 56 21 30 
41 56 21 22 
42 56 22 27 
43 28 23 76 
44 28 23 75 
45 22 23 24 
46 22 24 63 
47 22 24 25 
48 28 24 77 
49 22 25 26 
50 28 25 78 
51 22 25 62 
52 28 26 79 
53 28 26 80 
54 20 27 65 
55 56 27 28 
56 11 28 34 
57 56 28 29 
58 56 29 30 
59 11 29 31 
60 20 30 64 
61 2 31 67 
62 11 31 32 
63 56 32 33 
64 56 32 38 
65 11 33 34 
66 30 33 35 
67 2 34 66 
68 28 35 81 
69 22 35 36 
70 28 35 82 
71 28 36 84 
72 30 36 37 
73 28 36 83 
74 56 37 42 
75 56 37 38 
76 59 38 39 
77 59 39 40 
78 56 40 41 
79 56 40 49 
80 56 41 42 
81 30 41 46 
82 30 42 43 
83 22 43 44 
84 28 43 85 
85 28 43 86 
86 22 44 45 
87 28 44 87 
88 28 44 88 
89 28 45 89 
90 28 45 90 
91 22 45 46 
92 28 46 91 
93 22 46 47 
94 28 47 92 
95 28 47 93 
96 30 47 48 
97 56 48 49 
98 56 48 53 
99 56 49 50 
100 56 50 51 
101 57 50 94 
102 56 51 52 
103 57 51 95 
104 30 52 69 
105 56 52 53 
106 30 53 68 
107 28 54 97 
108 22 54 55 
109 28 54 96 
110 28 55 98 
111 28 55 99 
112 28 55 100 
113 28 56 101 
114 28 56 102 
115 28 56 103 
116 28 57 105 
117 28 57 106 
118 28 57 104 
119 28 58 107 
120 28 58 108 
121 28 58 109 
122 28 59 110 
123 28 59 111 
124 28 59 112 
125 28 60 113 
126 28 60 114 
127 28 60 115 
128 14 61 116 
129 28 62 117 
130 28 62 118 
131 28 62 119 
132 28 63 121 
133 28 63 122 
134 28 63 120 
135 14 64 123 
136 14 65 124 
137 28 68 125 
138 28 68 126 
139 28 68 127 
140 28 69 129 
141 28 69 130 
142 28 69 128 

Angles

1 143 1 2 58 
2 141 1 2 3 
3 141 1 6 5 
4 143 1 6 54 
5 73 1 56 101 
6 73 1 56 102 
7 73 1 56 103 
8 141 2 1 6 
9 143 2 1 56 
10 73 2 58 107 
11 73 2 58 108 
12 73 2 58 109 
13 141 2 3 4 
14 143 2 3 10 
15 143 3 2 58 
16 141 3 4 5 
17 143 3 4 7 
18 73 3 10 73 
19 75 3 10 9 
20 73 3 10 72 
21 143 4 3 10 
22 143 4 5 57 
23 141 4 5 6 
24 73 4 7 70 
25 73 4 7 71 
26 75 4 7 8 
27 73 5 57 105 
28 73 5 57 106 
29 73 5 57 104 
30 143 5 4 7 
31 143 5 6 54 
32 143 6 1 56 
33 143 6 5 57 
34 73 6 54 97 
35 80 6 54 55 
36 73 6 54 96 
37 143 7 8 9 
38 143 7 8 14 
39 143 8 9 10 
40 141 8 9 11 
41 141 8 14 13 
42 141 8 14 15 
43 73 8 7 70 
44 73 8 7 71 
45 73 9 10 73 
46 73 9 10 72 
47 143 9 11 59 
48 141 9 11 12 
49 141 9 8 14 
50 143 10 9 11 
51 73 11 59 110 
52 73 11 59 111 
53 73 11 59 112 
54 143 11 12 60 
55 141 11 12 13 
56 143 12 11 59 
57 73 12 60 113 
58 73 12 60 114 
59 73 12 60 115 
60 141 12 13 18 
61 141 12 13 14 
62 141 13 18 17 
63 142 13 18 61 
64 143 13 12 60 
65 141 13 14 15 
66 141 14 13 18 
67 153 14 15 74 
68 141 14 15 16 
69 141 15 16 17 
70 141 15 16 22 
71 141 16 17 18 
72 141 16 17 19 
73 141 16 22 27 
74 141 16 22 21 
75 153 16 15 74 
76 142 17 18 61 
77 143 17 19 26 
78 141 17 19 20 
79 141 17 16 22 
80 141 18 17 19 
81 44 18 61 116 
82 80 19 26 25 
83 73 19 26 79 
84 73 19 26 80 
85 141 19 20 21 
86 143 19 20 23 
87 143 20 19 26 
88 141 20 21 30 
89 141 20 21 22 
90 73 20 23 76 
91 73 20 23 75 
92 80 20 23 24 
93 141 21 30 29 
94 142 21 30 64 
95 143 21 20 23 
96 141 21 22 27 
97 142 22 27 65 
98 141 22 27 28 
99 141 22 21 30 
100 47 23 24 63 
101 47 23 24 25 
102 68 23 24 77 
103 68 24 63 121 
104 68 24 63 122 
105 68 24 63 120 
106 47 24 25 26 
107 68 24 25 78 
108 47 24 25 62 
109 68 24 23 76 
110 68 24 23 75 
111 68 25 26 79 
112 68 25 26 80 
113 68 25 62 117 
114 68 25 62 118 
115 68 25 62 119 
116 47 25 24 63 
117 68 25 24 77 
118 68 26 25 78 
119 47 26 25 62 
120 44 27 65 124 
121 150 27 28 34 
122 141 27 28 29 
123 33 28 34 33 
124 31 28 34 66 
125 142 28 27 65 
126 141 28 29 30 
127 150 28 29 31 
128 150 29 28 34 
129 142 29 30 64 
130 31 29 31 67 
131 33 29 31 32 
132 150 30 29 31 
133 44 30 64 123 
134 150 31 32 33 
135 150 31 32 38 
136 150 32 33 34 
137 143 32 33 35 
138 141 32 38 37 
139 160 32 38 39 
140 31 32 31 67 
141 31 33 34 66 
142 73 33 35 81 
143 80 33 35 36 
144 73 33 35 82 
145 141 33 32 38 
146 140 34 33 35 
147 68 35 36 84 
148 80 35 36 37 
149 68 35 36 83 
150 68 36 35 81 
151 68 36 35 82 
152 143 36 37 42 
153 143 36 37 38 
154 141 37 42 41 
155 143 37 42 43 
156 73 37 36 84 
157 73 37 36 83 
158 160 37 38 39 
159 141 38 37 42 
160 171 38 39 40 
161 160 39 40 41 
162 160 39 40 49 
163 141 40 41 42 
164 143 40 41 46 
165 141 40 49 50 
166 141 40 49 48 
167 143 41 42 43 
168 73 41 46 91 
169 80 41 46 45 
170 80 41 46 47 
171 141 41 40 49 
172 143 42 41 46 
173 80 42 43 44 
174 73 42 43 85 
175 73 42 43 86 
176 47 43 44 45 
177 68 43 44 87 
178 68 43 44 88 
179 68 44 43 85 
180 68 44 43 86 
181 68 44 45 89 
182 68 44 45 90 
183 47 44 45 46 
184 68 45 44 87 
185 68 45 44 88 
186 68 45 46 91 
187 47 45 46 47 
188 68 46 45 89 
189 68 46 45 90 
190 68 46 47 92 
191 68 46 47 93 
192 80 46 47 48 
193 68 47 46 91 
194 143 47 48 49 
195 143 47 48 53 
196 141 48 49 50 
197 143 48 53 68 
198 141 48 53 52 
199 73 48 47 92 
200 73 48 47 93 
201 141 49 50 51 
202 153 49 50 94 
203 141 49 48 53 
204 141 50 51 52 
205 153 50 51 95 
206 153 51 50 94 
207 143 51 52 69 
208 141 51 52 53 
209 153 52 51 95 
210 73 52 69 129 
211 73 52 69 130 
212 73 52 69 128 
213 143 52 53 68 
214 73 53 68 125 
215 73 53 68 126 
216 73 53 68 127 
217 143 53 52 69 
218 68 54 55 98 
219 68 54 55 99 
220 68 54 55 100 
221 68 55 54 97 
222 68 55 54 96 
223 68 62 25 78 
224 68 63 24 77 
225 61 70 7 71 
226 61 72 10 73 
227 61 75 23 76 
228 61 79 26 80 
229 61 81 35 82 
230 61 83 36 84 
231 61 85 43 86 
232 61 87 44 88 
233 61 89 45 90 
234 61 92 47 93 
235 61 96 54 97 
236 61 98 55 99 
237 61 98 55 100 
238 61 99 55 100 
239 61 101 56 102 
240 61 101 56 103 
241 61 102 56 103 
242 61 104 57 105 
243 61 104 57 106 
244 61 105 57 106 
245 61 107 58 108 
246 61 107 58 109 
247 61 108 58 109 
248 61 110 59 111 
249 61 110 59 112 
250 61 111 59 112 
251 61 113 60 114 
252 61 113 60 115 
253 61 114 60 115 
254 61 117 62 118 
255 61 117 62 119 
256 61 118 62 119 
257 61 120 63 121 
258 61 120 63 122 
259 61 121 63 122 
260 61 125 68 126 
261 61 125 68 127 
262 61 126 68 127 
263 61 128 69 129 
264 61 128 69 130 
265 61 129 69 130 

Dihedrals

1 182 1 2 58 107 
2 182 1 2 58 108 
3 182 1 2 58 109 
4 240 1 2 3 4 
5 234 1 2 3 10 
6 234 1 6 5 57 
7 240 1 6 5 4 
8 182 1 6 54 97 
9 179 1 6 54 55 
10 182 1 6 54 96 
11 240 2 1 6 5 
12 234 2 1 6 54 
13 182 2 1 56 101 
14 182 2 1 56 102 
15 182 2 1 56 103 
16 240 2 3 4 5 
17 234 2 3 4 7 
18 182 2 3 10 73 
19 178 2 3 10 9 
20 182 2 3 10 72 
21 240 3 2 1 6 
22 234 3 2 1 56 
23 182 3 2 58 107 
24 182 3 2 58 108 
25 182 3 2 58 109 
26 234 3 4 5 57 
27 240 3 4 5 6 
28 182 3 4 7 70 
29 182 3 4 7 71 
30 178 3 4 7 8 
31 178 3 10 9 11 
32 178 3 10 9 8 
33 234 4 3 2 58 
34 182 4 3 10 73 
35 178 4 3 10 9 
36 182 4 3 10 72 
37 182 4 5 57 105 
38 182 4 5 57 106 
39 182 4 5 57 104 
40 234 4 5 6 54 
41 178 4 7 8 9 
42 178 4 7 8 14 
43 234 5 4 3 10 
44 182 5 4 7 70 
45 182 5 4 7 71 
46 178 5 4 7 8 
47 234 5 6 1 56 
48 182 5 6 54 97 
49 179 5 6 54 55 
50 182 5 6 54 96 
51 234 6 1 2 58 
52 182 6 1 56 101 
53 182 6 1 56 102 
54 182 6 1 56 103 
55 182 6 5 57 105 
56 182 6 5 57 106 
57 182 6 5 57 104 
58 234 6 5 4 7 
59 136 6 54 55 98 
60 136 6 54 55 99 
61 136 6 54 55 100 
62 233 7 4 3 10 
63 233 7 4 5 57 
64 233 7 8 9 10 
65 234 7 8 9 11 
66 234 7 8 14 13 
67 234 7 8 14 15 
68 182 8 9 10 73 
69 182 8 9 10 72 
70 234 8 9 11 59 
71 240 8 9 11 12 
72 240 8 14 13 18 
73 240 8 14 13 12 
74 241 8 14 15 74 
75 240 8 14 15 16 
76 182 9 11 59 110 
77 182 9 11 59 111 
78 182 9 11 59 112 
79 234 9 11 12 60 
80 240 9 11 12 13 
81 240 9 8 14 13 
82 240 9 8 14 15 
83 182 9 8 7 70 
84 182 9 8 7 71 
85 233 10 9 11 59 
86 234 10 9 11 12 
87 234 10 9 8 14 
88 233 10 3 2 58 
89 182 11 9 10 73 
90 182 11 9 10 72 
91 240 11 9 8 14 
92 182 11 12 60 113 
93 182 11 12 60 114 
94 182 11 12 60 115 
95 240 11 12 13 18 
96 240 11 12 13 14 
97 182 12 11 59 110 
98 182 12 11 59 111 
99 182 12 11 59 112 
100 240 12 13 18 17 
101 231 12 13 18 61 
102 240 12 13 14 15 
103 240 13 18 17 19 
104 240 13 18 17 16 
105 98 13 18 61 116 
106 234 13 12 11 59 
107 182 13 12 60 113 
108 182 13 12 60 114 
109 182 13 12 60 115 
110 241 13 14 15 74 
111 240 13 14 15 16 
112 240 14 13 18 17 
113 231 14 13 18 61 
114 234 14 13 12 60 
115 240 14 15 16 17 
116 240 14 15 16 22 
117 182 14 8 7 70 
118 182 14 8 7 71 
119 240 15 14 13 18 
120 240 15 16 17 18 
121 240 15 16 17 19 
122 240 15 16 22 27 
123 240 15 16 22 21 
124 231 16 17 18 61 
125 234 16 17 19 26 
126 240 16 17 19 20 
127 231 16 22 27 65 
128 240 16 22 27 28 
129 240 16 22 21 30 
130 240 16 22 21 20 
131 98 17 18 61 116 
132 179 17 19 26 25 
133 182 17 19 26 79 
134 182 17 19 26 80 
135 240 17 19 20 21 
136 234 17 19 20 23 
137 240 17 16 22 27 
138 240 17 16 22 21 
139 241 17 16 15 74 
140 234 18 17 19 26 
141 240 18 17 19 20 
142 240 18 17 16 22 
143 234 18 13 12 60 
144 231 19 17 18 61 
145 240 19 17 16 22 
146 136 19 26 25 78 
147 101 19 26 25 62 
148 101 19 26 25 24 
149 240 19 20 21 30 
150 240 19 20 21 22 
151 182 19 20 23 76 
152 182 19 20 23 75 
153 179 19 20 23 24 
154 179 20 19 26 25 
155 182 20 19 26 79 
156 182 20 19 26 80 
157 240 20 21 30 29 
158 231 20 21 30 64 
159 240 20 21 22 27 
160 101 20 23 24 63 
161 101 20 23 24 25 
162 136 20 23 24 77 
163 240 21 30 29 28 
164 231 21 30 29 31 
165 98 21 30 64 123 
166 234 21 20 19 26 
167 182 21 20 23 76 
168 182 21 20 23 75 
169 179 21 20 23 24 
170 231 21 22 27 65 
171 240 21 22 27 28 
172 98 22 27 65 124 
173 231 22 27 28 34 
174 240 22 27 28 29 
175 240 22 21 30 29 
176 231 22 21 30 64 
177 234 22 21 20 23 
178 241 22 16 15 74 
179 233 23 20 19 26 
180 234 23 20 21 30 
181 121 23 24 63 121 
182 121 23 24 63 122 
183 121 23 24 63 120 
184 116 23 24 25 26 
185 121 23 24 25 78 
186 116 23 24 25 62 
187 121 24 25 26 79 
188 121 24 25 26 80 
189 121 24 25 62 117 
190 121 24 25 62 118 
191 121 24 25 62 119 
192 121 25 24 63 121 
193 121 25 24 63 122 
194 121 25 24 63 120 
195 121 25 24 23 76 
196 121 25 24 23 75 
197 121 26 25 62 117 
198 121 26 25 62 118 
199 121 26 25 62 119 
200 116 26 25 24 63 
201 121 26 25 24 77 
202 79 27 28 34 66 
203 240 27 28 29 30 
204 231 27 28 29 31 
205 240 27 22 21 30 
206 98 28 27 65 124 
207 231 28 29 30 64 
208 79 28 29 31 67 
209 79 29 28 34 66 
210 231 29 28 27 65 
211 98 29 30 64 123 
212 231 30 29 28 34 
213 79 30 29 31 67 
214 229 31 29 28 34 
215 229 31 29 30 64 
216 229 31 32 33 34 
217 230 31 32 33 35 
218 231 31 32 38 37 
219 229 31 32 38 39 
220 79 32 33 34 66 
221 182 32 33 35 81 
222 179 32 33 35 36 
223 182 32 33 35 82 
224 240 32 38 37 42 
225 234 32 38 37 36 
226 246 32 38 39 40 
227 136 33 35 36 84 
228 136 33 35 36 83 
229 240 33 32 38 37 
230 231 33 32 38 39 
231 79 33 32 31 67 
232 231 34 33 32 38 
233 229 34 28 27 65 
234 234 35 33 32 38 
235 179 35 36 37 42 
236 179 35 36 37 38 
237 234 36 37 42 41 
238 233 36 37 42 43 
239 230 36 37 38 39 
240 234 37 42 41 46 
241 240 37 42 41 40 
242 179 37 42 43 44 
243 182 37 42 43 85 
244 182 37 42 43 86 
245 136 37 36 35 81 
246 136 37 36 35 82 
247 246 37 38 39 40 
248 240 38 37 42 41 
249 234 38 37 42 43 
250 182 38 37 36 84 
251 182 38 37 36 83 
252 246 38 39 40 41 
253 246 38 39 40 49 
254 79 38 32 31 67 
255 231 39 38 37 42 
256 231 39 40 41 42 
257 230 39 40 41 46 
258 231 39 40 49 50 
259 231 39 40 49 48 
260 234 40 41 42 43 
261 182 40 41 46 91 
262 179 40 41 46 45 
263 179 40 41 46 47 
264 240 40 49 50 51 
265 241 40 49 50 94 
266 240 40 49 48 53 
267 234 40 49 48 47 
268 179 41 42 43 44 
269 182 41 42 43 85 
270 182 41 42 43 86 
271 136 41 46 45 89 
272 136 41 46 45 90 
273 101 41 46 45 44 
274 136 41 46 47 92 
275 136 41 46 47 93 
276 240 41 40 49 50 
277 240 41 40 49 48 
278 182 42 41 46 91 
279 179 42 41 46 45 
280 179 42 41 46 47 
281 240 42 41 40 49 
282 101 42 43 44 45 
283 136 42 43 44 87 
284 136 42 43 44 88 
285 182 42 37 36 84 
286 182 42 37 36 83 
287 233 43 42 41 46 
288 121 43 44 45 89 
289 121 43 44 45 90 
290 116 43 44 45 46 
291 121 44 45 46 91 
292 116 44 45 46 47 
293 121 45 44 43 85 
294 121 45 44 43 86 
295 121 45 46 47 92 
296 121 45 46 47 93 
297 101 45 46 47 48 
298 234 46 41 40 49 
299 121 46 45 44 87 
300 121 46 45 44 88 
301 179 46 47 48 49 
302 179 46 47 48 53 
303 121 47 46 45 89 
304 121 47 46 45 90 
305 234 47 48 49 50 
306 233 47 48 53 68 
307 234 47 48 53 52 
308 240 48 49 50 51 
309 241 48 49 50 94 
310 182 48 53 68 125 
311 182 48 53 68 126 
312 182 48 53 68 127 
313 240 48 53 52 51 
314 234 48 53 52 69 
315 136 48 47 46 91 
316 240 49 50 51 52 
317 241 49 50 51 95 
318 234 49 48 53 68 
319 240 49 48 53 52 
320 182 49 48 47 92 
321 182 49 48 47 93 
322 240 50 49 48 53 
323 234 50 51 52 69 
324 240 50 51 52 53 
325 182 51 52 69 129 
326 182 51 52 69 130 
327 182 51 52 69 128 
328 234 51 52 53 68 
329 241 52 51 50 94 
330 182 52 53 68 125 
331 182 52 53 68 126 
332 182 52 53 68 127 
333 241 53 52 51 95 
334 182 53 52 69 129 
335 182 53 52 69 130 
336 182 53 52 69 128 
337 182 53 48 47 92 
338 182 53 48 47 93 
339 233 54 6 1 56 
340 233 54 6 5 57 
341 233 56 1 2 58 
342 233 59 11 12 60 
343 121 62 25 26 79 
344 121 62 25 26 80 
345 116 62 25 24 63 
346 121 62 25 24 77 
347 121 63 24 25 78 
348 121 63 24 23 76 
349 121 63 24 23 75 
350 233 68 53 52 69 
351 235 69 52 51 95 
352 134 75 23 24 77 
353 134 76 23 24 77 
354 134 77 24 63 121 
355 134 77 24 63 122 
356 134 77 24 63 120 
357 134 77 24 25 78 
358 134 78 25 26 79 
359 134 78 25 26 80 
360 134 78 25 62 117 
361 134 78 25 62 118 
362 134 78 25 62 119 
363 134 81 35 36 84 
364 134 81 35 36 83 
365 134 82 35 36 84 
366 134 82 35 36 83 
367 134 85 43 44 87 
368 134 85 43 44 88 
369 134 86 43 44 87 
370 134 86 43 44 88 
371 134 87 44 45 89 
372 134 87 44 45 90 
373 134 88 44 45 89 
374 134 88 44 45 90 
375 134 89 45 46 91 
376 134 90 45 46 91 
377 134 91 46 47 92 
378 134 91 46 47 93 
379 242 94 50 51 95 
380 134 96 54 55 98 
381 134 96 54 55 99 
382 134 96 54 55 100 
383 134 97 54 55 98 
384 134 97 54 55 99 
385 134 97 54 55 100 

Impropers

1 5 1 2 6 56 
2 5 2 1 3 58 
3 5 3 2 4 10 
4 5 4 3 5 7 
5 5 5 4 6 57 
6 5 6 1 5 54 
7 5 8 7 9 14 
8 5 9 8 10 11 
9 5 11 9 12 59 
10 5 12 11 13 60 
11 5 13 12 14 18 
12 5 14 8 13 15 
13 5 15 14 16 74 
14 5 16 15 17 22 
15 5 17 16 18 19 
16 5 18 13 17 61 
17 5 19 17 20 26 
18 5 20 19 21 23 
19 5 21 20 22 30 
20 5 22 16 21 27 
21 5 27 22 28 65 
22 5 28 27 29 34 
23 5 29 28 30 31 
24 5 30 21 29 64 
25 1 31 29 32 67 
26 5 32 31 33 38 
27 5 33 32 34 35 
28 1 34 28 33 66 
29 5 37 36 38 42 
30 5 38 32 37 39 
31 5 40 39 41 49 
32 5 41 40 42 46 
33 5 42 37 41 43 
34 5 48 47 49 53 
35 5 49 40 48 50 
36 5 50 49 51 94 
37 5 51 50 52 95 
38 5 52 51 53 69 
39 5 53 48 52 68 

